 TITLE= "ZEUSMP/2 FIELD DATA AT TIME:    5.98916323144390      yr "
 VARIABLES= "X","Y","Z","rho","e","V1","V2","V3"
 ZONE I=  100 , J=  160 , K=    1 , F=POINT
     3.02838E+01     4.86288E-02     3.14159E+00     5.46810E-21     7.03644E-03    -4.79455E+09     1.02062E+08     7.34069E+06
     3.02838E+01     1.42876E-01     3.14159E+00     5.41747E-21     6.86291E-03    -4.79274E+09     3.03741E+08     4.56541E+07
     3.02838E+01     2.31287E-01     3.14159E+00     5.38729E-21     6.67949E-03    -4.78686E+09     4.95912E+08     6.13697E+07
     3.02838E+01     3.14225E-01     3.14159E+00     5.42001E-21     6.58270E-03    -4.77486E+09     6.69568E+08     6.93100E+07
     3.02838E+01     3.92028E-01     3.14159E+00     5.54846E-21     6.76946E-03    -4.75488E+09     8.12541E+08     7.54279E+07
     3.02838E+01     4.65013E-01     3.14159E+00     6.00386E-21     7.59144E-03    -4.72838E+09     8.98743E+08     8.20542E+07
     3.02838E+01     5.33480E-01     3.14159E+00     6.69852E-21     8.93201E-03    -4.70418E+09     9.47358E+08     9.11125E+07
     3.02838E+01     5.97708E-01     3.14159E+00     7.27609E-21     1.00879E-02    -4.68414E+09     1.02371E+09     1.05150E+08
     3.02838E+01     6.57959E-01     3.14159E+00     7.62885E-21     1.03845E-02    -4.66218E+09     1.15625E+09     1.28969E+08
     3.02838E+01     7.14480E-01     3.14159E+00     7.63953E-21     1.00192E-02    -4.63003E+09     1.32661E+09     1.67004E+08
     3.02838E+01     7.67502E-01     3.14159E+00     7.60879E-21     9.58465E-03    -4.58287E+09     1.50375E+09     2.23922E+08
     3.02838E+01     8.17240E-01     3.14159E+00     7.57804E-21     9.21041E-03    -4.51835E+09     1.66769E+09     3.03936E+08
     3.02838E+01     8.63899E-01     3.14159E+00     7.52507E-21     8.91065E-03    -4.43551E+09     1.81014E+09     4.09737E+08
     3.02838E+01     9.07670E-01     3.14159E+00     7.48115E-21     8.77510E-03    -4.32639E+09     1.93429E+09     5.41705E+08
     3.02838E+01     9.48730E-01     3.14159E+00     7.53125E-21     8.86463E-03    -4.17866E+09     2.03734E+09     6.97756E+08
     3.02838E+01     9.87248E-01     3.14159E+00     7.69644E-21     9.18266E-03    -3.98465E+09     2.09566E+09     8.73230E+08
     3.02838E+01     1.02338E+00     3.14159E+00     7.91464E-21     9.63477E-03    -3.74704E+09     2.10312E+09     1.06195E+09
     3.02838E+01     1.05728E+00     3.14159E+00     8.24727E-21     1.03963E-02    -3.47206E+09     2.07004E+09     1.25826E+09
     3.02838E+01     1.08908E+00     3.14159E+00     8.72560E-21     1.16226E-02    -3.16310E+09     1.99528E+09     1.45459E+09
     3.02838E+01     1.11890E+00     3.14159E+00     9.26473E-21     1.32177E-02    -2.82626E+09     1.88674E+09     1.64019E+09
     3.02838E+01     1.14689E+00     3.14159E+00     9.81559E-21     1.51030E-02    -2.47466E+09     1.75425E+09     1.80458E+09
     3.02838E+01     1.17314E+00     3.14159E+00     1.04713E-20     1.75473E-02    -2.12213E+09     1.59221E+09     1.94139E+09
     3.02838E+01     1.19776E+00     3.14159E+00     1.14141E-20     2.12159E-02    -1.77037E+09     1.39092E+09     2.04900E+09
     3.02838E+01     1.22086E+00     3.14159E+00     1.27383E-20     2.66823E-02    -1.40386E+09     1.17242E+09     2.12865E+09
     3.02838E+01     1.24253E+00     3.14159E+00     1.40468E-20     3.24753E-02    -1.02184E+09     1.01057E+09     2.18263E+09
     3.02838E+01     1.26286E+00     3.14159E+00     1.43626E-20     3.46333E-02    -7.12964E+08     9.49023E+08     2.21068E+09
     3.02838E+01     1.28193E+00     3.14159E+00     1.43671E-20     3.53658E-02    -4.89236E+08     9.40884E+08     2.22740E+09
     3.02838E+01     1.29982E+00     3.14159E+00     1.44573E-20     3.62417E-02    -3.31367E+08     9.35006E+08     2.22754E+09
     3.02838E+01     1.31660E+00     3.14159E+00     1.46762E-20     3.75191E-02    -2.21042E+08     9.21641E+08     2.22566E+09
     3.02838E+01     1.33234E+00     3.14159E+00     1.49737E-20     3.90444E-02    -1.45473E+08     9.03285E+08     2.22202E+09
     3.02838E+01     1.34711E+00     3.14159E+00     1.53010E-20     4.06436E-02    -9.64480E+07     8.83911E+08     2.21738E+09
     3.02838E+01     1.36096E+00     3.14159E+00     1.56119E-20     4.21824E-02    -7.68464E+07     8.66258E+08     2.21258E+09
     3.02838E+01     1.37396E+00     3.14159E+00     1.58808E-20     4.35516E-02    -7.04737E+07     8.51564E+08     2.20828E+09
     3.02838E+01     1.38615E+00     3.14159E+00     1.61350E-20     4.48402E-02    -5.07989E+07     8.38235E+08     2.20452E+09
     3.02838E+01     1.39758E+00     3.14159E+00     1.64333E-20     4.62574E-02     2.68658E+06     8.21783E+08     2.20050E+09
     3.02838E+01     1.40831E+00     3.14159E+00     1.67356E-20     4.76888E-02     4.12327E+07     7.80748E+08     2.19596E+09
     3.02838E+01     1.41837E+00     3.14159E+00     1.72054E-20     4.99727E-02     7.51037E+07     6.98347E+08     2.19080E+09
     3.02838E+01     1.42781E+00     3.14159E+00     1.77471E-20     5.27006E-02     9.72862E+07     5.89334E+08     2.18504E+09
     3.02838E+01     1.43667E+00     3.14159E+00     1.82440E-20     5.52873E-02     1.04979E+08     4.76095E+08     2.17877E+09
     3.02838E+01     1.44498E+00     3.14159E+00     1.86499E-20     5.74550E-02     1.01080E+08     3.72729E+08     2.17218E+09
     3.02838E+01     1.45277E+00     3.14159E+00     1.89586E-20     5.91362E-02     9.19760E+07     2.84809E+08     2.16535E+09
     3.02838E+01     1.46008E+00     3.14159E+00     1.91895E-20     6.04110E-02     8.14171E+07     2.12439E+08     2.15840E+09
     3.02838E+01     1.46694E+00     3.14159E+00     1.93553E-20     6.13634E-02     7.63165E+07     1.51811E+08     2.15075E+09
     3.02838E+01     1.47338E+00     3.14159E+00     1.94807E-20     6.21413E-02     6.58109E+07     1.01104E+08     2.14207E+09
     3.02838E+01     1.47941E+00     3.14159E+00     1.95755E-20     6.27738E-02     4.60548E+07     6.38400E+07     2.13308E+09
     3.02838E+01     1.48507E+00     3.14159E+00     1.96651E-20     6.32628E-02     3.14686E+07     3.98302E+07     2.12339E+09
     3.02838E+01     1.49038E+00     3.14159E+00     1.97915E-20     6.36700E-02     2.26430E+07     2.42824E+07     2.11517E+09
     3.02838E+01     1.49537E+00     3.14159E+00     1.99336E-20     6.40278E-02     1.43314E+07     1.44267E+07     2.11341E+09
     3.02838E+01     1.50004E+00     3.14159E+00     2.00917E-20     6.43469E-02     9.00106E+06     8.73224E+06     2.11313E+09
     3.02838E+01     1.50442E+00     3.14159E+00     2.01840E-20     6.46355E-02     2.87762E+06     6.14079E+06     2.10962E+09
     3.02838E+01     1.50854E+00     3.14159E+00     1.04087E-19     6.54136E-02    -4.42664E+07     4.75791E+06     2.02432E+09
     3.02838E+01     1.51240E+00     3.14159E+00     5.28816E-20     6.62796E-02    -1.28634E+07     3.61824E+06     2.03782E+09
     3.02838E+01     1.51602E+00     3.14159E+00     5.00836E-19     6.90847E-02    -1.25806E+06     3.61510E+06     2.00490E+09
     3.02838E+01     1.51941E+00     3.14159E+00     1.23202E-18     7.70028E-02     4.71579E+06     2.70175E+06     1.99780E+09
     3.02838E+01     1.52260E+00     3.14159E+00     1.85786E-18     9.00401E-02     3.94352E+06     8.65332E+05     1.99306E+09
     3.02838E+01     1.52558E+00     3.14159E+00     2.60730E-18     1.07218E-01     1.76432E+06    -1.28079E+04     1.98910E+09
     3.02838E+01     1.52839E+00     3.14159E+00     4.28256E-18     1.31337E-01    -1.02429E+05    -1.65072E+05     1.98541E+09
     3.02838E+01     1.53102E+00     3.14159E+00     7.32620E-18     1.68422E-01    -1.75064E+06     9.63680E+04     1.98207E+09
     3.02838E+01     1.53348E+00     3.14159E+00     1.19276E-17     2.24832E-01    -2.33663E+06     4.59224E+05     1.97926E+09
     3.02838E+01     1.53580E+00     3.14159E+00     1.86624E-17     3.06951E-01    -2.64071E+06     7.58748E+05     1.97664E+09
     3.02838E+01     1.53797E+00     3.14159E+00     2.85765E-17     4.23147E-01    -2.87126E+06     9.70949E+05     1.97402E+09
     3.02838E+01     1.54000E+00     3.14159E+00     4.27820E-17     5.84297E-01    -2.87126E+06     1.11061E+06     1.97163E+09
     3.02838E+01     1.54191E+00     3.14159E+00     6.20516E-17     8.02063E-01    -2.66281E+06     1.18016E+06     1.96972E+09
     3.02838E+01     1.54371E+00     3.14159E+00     8.72995E-17     1.08718E+00    -2.49183E+06     1.20670E+06     1.96822E+09
     3.02838E+01     1.54539E+00     3.14159E+00     1.20702E-16     1.45289E+00    -2.46854E+06     1.21065E+06     1.96695E+09
     3.02838E+01     1.54696E+00     3.14159E+00     1.67298E-16     1.91912E+00    -2.58110E+06     1.21509E+06     1.96591E+09
     3.02838E+01     1.54844E+00     3.14159E+00     2.32618E-16     2.51549E+00    -2.61899E+06     1.23011E+06     1.96511E+09
     3.02838E+01     1.54983E+00     3.14159E+00     3.19571E-16     3.27479E+00    -2.48883E+06     1.23284E+06     1.96442E+09
     3.02838E+01     1.55113E+00     3.14159E+00     4.23138E-16     4.21699E+00    -2.17099E+06     1.20168E+06     1.96367E+09
     3.02838E+01     1.55235E+00     3.14159E+00     5.43872E-16     5.35045E+00    -1.90578E+06     1.14349E+06     1.96285E+09
     3.02838E+01     1.55350E+00     3.14159E+00     6.96470E-16     6.69391E+00    -1.84865E+06     1.08412E+06     1.96203E+09
     3.02838E+01     1.55457E+00     3.14159E+00     8.89196E-16     8.28249E+00    -1.71199E+06     1.02894E+06     1.96116E+09
     3.02838E+01     1.55558E+00     3.14159E+00     1.12207E-15     1.01481E+01    -1.66348E+06     9.77733E+05     1.96032E+09
     3.02838E+01     1.55653E+00     3.14159E+00     1.39368E-15     1.23096E+01    -1.71895E+06     9.39340E+05     1.95971E+09
     3.02838E+01     1.55742E+00     3.14159E+00     1.69340E-15     1.47691E+01    -1.39612E+06     8.96298E+05     1.95940E+09
     3.02838E+01     1.55825E+00     3.14159E+00     2.02528E-15     1.75196E+01    -1.06564E+06     8.32616E+05     1.95918E+09
     3.02838E+01     1.55903E+00     3.14159E+00     2.40829E-15     2.05650E+01    -1.12231E+06     7.71043E+05     1.95882E+09
     3.02838E+01     1.55976E+00     3.14159E+00     2.85294E-15     2.39227E+01    -1.55228E+06     7.39205E+05     1.95835E+09
     3.02838E+01     1.56045E+00     3.14159E+00     3.37082E-15     2.76140E+01    -1.83808E+06     7.37869E+05     1.95817E+09
     3.02838E+01     1.56109E+00     3.14159E+00     3.89903E-15     3.16239E+01    -1.39947E+06     7.31471E+05     1.95805E+09
     3.02838E+01     1.56170E+00     3.14159E+00     4.39647E-15     3.58818E+01    -1.00526E+06     6.99025E+05     1.95787E+09
     3.02838E+01     1.56226E+00     3.14159E+00     4.92029E-15     4.03329E+01    -5.84513E+05     6.47523E+05     1.95747E+09
     3.02838E+01     1.56280E+00     3.14159E+00     5.50086E-15     4.49683E+01    -1.14375E+04     5.75331E+05     1.95688E+09
     3.02838E+01     1.56330E+00     3.14159E+00     6.16152E-15     4.97998E+01    -9.41345E+04     4.99990E+05     1.95651E+09
     3.02838E+01     1.56376E+00     3.14159E+00     6.95298E-15     5.48627E+01    -6.51216E+05     4.52227E+05     1.95627E+09
     3.02838E+01     1.56420E+00     3.14159E+00     7.80960E-15     6.01762E+01    -1.36528E+06     4.41293E+05     1.95599E+09
     3.02838E+01     1.56461E+00     3.14159E+00     8.67952E-15     6.57105E+01    -1.56085E+06     4.52286E+05     1.95557E+09
     3.02838E+01     1.56500E+00     3.14159E+00     9.61388E-15     7.14386E+01    -1.62620E+06     4.66818E+05     1.95516E+09
     3.02838E+01     1.56536E+00     3.14159E+00     1.06411E-14     7.73566E+01    -2.41023E+06     4.94258E+05     1.95485E+09
     3.02838E+01     1.56570E+00     3.14159E+00     1.17580E-14     8.34631E+01    -3.59842E+06     5.51988E+05     1.95461E+09
     3.02838E+01     1.56602E+00     3.14159E+00     1.30034E-14     8.97625E+01    -4.47509E+06     6.35865E+05     1.95441E+09
     3.02838E+01     1.56632E+00     3.14159E+00     1.43752E-14     9.62651E+01    -4.12501E+06     7.18194E+05     1.95413E+09
     3.02838E+01     1.56660E+00     3.14159E+00     1.57889E-14     1.02958E+02    -2.85277E+06     7.68211E+05     1.95369E+09
     3.02838E+01     1.56687E+00     3.14159E+00     1.71089E-14     1.09782E+02    -1.34773E+06     7.75369E+05     1.95309E+09
     3.02838E+01     1.56711E+00     3.14159E+00     1.82653E-14     1.16642E+02    -6.68143E+05     7.54360E+05     1.95247E+09
     3.02838E+01     1.56734E+00     3.14159E+00     1.93355E-14     1.23461E+02    -6.89720E+05     7.28843E+05     1.95204E+09
     3.02838E+01     1.56756E+00     3.14159E+00     2.01942E-14     1.30164E+02    -4.29008E+05     7.03123E+05     1.95162E+09
     3.02838E+01     1.56777E+00     3.14159E+00     2.10869E-14     1.36710E+02    -4.03787E+05     6.76191E+05     1.95103E+09
     3.02838E+01     1.56796E+00     3.14159E+00     2.22656E-14     1.43138E+02    -1.33261E+06     6.60015E+05     1.95043E+09
     3.02838E+01     1.56814E+00     3.14159E+00     2.37903E-14     1.49526E+02    -2.52438E+06     6.63410E+05     1.95007E+09
     3.02838E+01     1.56831E+00     3.14159E+00     2.54327E-14     1.55911E+02    -3.28062E+06     6.81935E+05     1.94981E+09
     3.02838E+01     1.56846E+00     3.14159E+00     2.69375E-14     1.62267E+02    -3.50628E+06     7.05709E+05     1.94946E+09
     3.02838E+01     1.56861E+00     3.14159E+00     2.82833E-14     1.68540E+02    -3.54813E+06     7.29161E+05     1.94899E+09
     3.02838E+01     1.56875E+00     3.14159E+00     2.95291E-14     1.74688E+02    -3.60256E+06     7.51109E+05     1.94851E+09
     3.02838E+01     1.56888E+00     3.14159E+00     3.07067E-14     1.80685E+02    -3.43416E+06     7.70567E+05     1.94816E+09
     3.02838E+01     1.56900E+00     3.14159E+00     3.18222E-14     1.86514E+02    -2.73648E+06     7.83835E+05     1.94797E+09
     3.02838E+01     1.56912E+00     3.14159E+00     3.28928E-14     1.92165E+02    -1.49799E+06     7.86071E+05     1.94781E+09
     3.02838E+01     1.56923E+00     3.14159E+00     3.39222E-14     1.97632E+02     1.18395E+05     7.73706E+05     1.94758E+09
     3.02838E+01     1.56933E+00     3.14159E+00     3.51155E-14     2.02925E+02     1.10519E+06     7.49186E+05     1.94725E+09
     3.02838E+01     1.56942E+00     3.14159E+00     3.66041E-14     2.08076E+02     2.17360E+06     7.16338E+05     1.94675E+09
     3.02838E+01     1.56951E+00     3.14159E+00     3.84554E-14     2.13127E+02     3.25195E+06     6.75775E+05     1.94607E+09
     3.02838E+01     1.56959E+00     3.14159E+00     4.06152E-14     2.18114E+02     4.24213E+06     6.28926E+05     1.94522E+09
     3.02838E+01     1.56967E+00     3.14159E+00     4.29372E-14     2.23051E+02     5.12650E+06     5.77625E+05     1.94426E+09
     3.02838E+01     1.56975E+00     3.14159E+00     4.52655E-14     2.27935E+02     5.88880E+06     5.23613E+05     1.94325E+09
     3.02838E+01     1.56981E+00     3.14159E+00     4.75153E-14     2.32749E+02     6.52641E+06     4.68396E+05     1.94220E+09
     3.02838E+01     1.56988E+00     3.14159E+00     4.96959E-14     2.37476E+02     7.03801E+06     4.13247E+05     1.94112E+09
     3.02838E+01     1.56994E+00     3.14159E+00     5.18775E-14     2.42105E+02     7.41310E+06     3.59249E+05     1.93999E+09
     3.02838E+01     1.57000E+00     3.14159E+00     5.41504E-14     2.46634E+02     7.62787E+06     3.07373E+05     1.93880E+09
     3.02838E+01     1.57005E+00     3.14159E+00     5.65987E-14     2.51067E+02     7.65130E+06     2.58566E+05     1.93753E+09
     3.02838E+01     1.57010E+00     3.14159E+00     5.92900E-14     2.55415E+02     7.45518E+06     2.13745E+05     1.93619E+09
     3.02838E+01     1.57015E+00     3.14159E+00     6.22746E-14     2.59690E+02     7.03132E+06     1.73718E+05     1.93477E+09
     3.02838E+01     1.57019E+00     3.14159E+00     6.55941E-14     2.63905E+02     6.42617E+06     1.39015E+05     1.93329E+09
     3.02838E+01     1.57023E+00     3.14159E+00     6.92960E-14     2.68072E+02     5.71388E+06     1.09742E+05     1.93178E+09
     3.02838E+01     1.57027E+00     3.14159E+00     7.34563E-14     2.72207E+02     4.96112E+06     8.56330E+04     1.93028E+09
     3.02838E+01     1.57031E+00     3.14159E+00     7.82047E-14     2.76325E+02     4.22281E+06     6.61848E+04     1.92882E+09
     3.02838E+01     1.57034E+00     3.14159E+00     8.37372E-14     2.80447E+02     3.53889E+06     5.07573E+04     1.92740E+09
     3.02838E+01     1.57037E+00     3.14159E+00     9.02913E-14     2.84600E+02     2.93609E+06     3.86656E+04     1.92601E+09
     3.02838E+01     1.57040E+00     3.14159E+00     9.80686E-14     2.88814E+02     2.43269E+06     2.92414E+04     1.92460E+09
     3.02838E+01     1.57043E+00     3.14159E+00     1.07123E-13     2.93119E+02     2.04927E+06     2.18472E+04     1.92312E+09
     3.02838E+01     1.57046E+00     3.14159E+00     1.17296E-13     2.97533E+02     1.77706E+06     1.59195E+04     1.92157E+09
     3.02838E+01     1.57048E+00     3.14159E+00     1.28278E-13     3.02063E+02     1.59127E+06     1.10266E+04     1.91996E+09
     3.02838E+01     1.57051E+00     3.14159E+00     1.39797E-13     3.06699E+02     1.47722E+06     6.85739E+03     1.91830E+09
     3.02838E+01     1.57053E+00     3.14159E+00     1.51903E-13     3.11431E+02     1.36020E+06     3.25491E+03     1.91669E+09
     3.02838E+01     1.57055E+00     3.14159E+00     1.64952E-13     3.16250E+02     1.18812E+06     2.27361E+02     1.91529E+09
     3.02838E+01     1.57057E+00     3.14159E+00     1.78121E-13     3.21144E+02     9.38803E+05    -2.14796E+03     1.91418E+09
     3.02838E+01     1.57058E+00     3.14159E+00     1.90232E-13     3.26071E+02     6.15155E+05    -3.79700E+03     1.91331E+09
     3.02838E+01     1.57060E+00     3.14159E+00     2.02470E-13     3.30998E+02     2.40226E+05    -4.68964E+03     1.91269E+09
     3.02838E+01     1.57062E+00     3.14159E+00     2.17184E-13     3.35935E+02    -3.12222E+05    -4.51436E+03     1.91257E+09
     3.02838E+01     1.57063E+00     3.14159E+00     2.38710E-13     3.40966E+02    -9.09502E+05    -2.82792E+03     1.91330E+09
     3.02838E+01     1.57065E+00     3.14159E+00     2.67522E-13     3.46205E+02    -9.43638E+05    -3.71450E+02     1.91463E+09
     3.02838E+01     1.57066E+00     3.14159E+00     3.01682E-13     3.51730E+02    -5.97190E+05     1.50273E+03     1.91591E+09
     3.02838E+01     1.57067E+00     3.14159E+00     3.37599E-13     3.57550E+02    -2.27317E+05     2.35170E+03     1.91675E+09
     3.02838E+01     1.57068E+00     3.14159E+00     3.71374E-13     3.63604E+02     2.85739E+04     2.42105E+03     1.91694E+09
     3.02838E+01     1.57069E+00     3.14159E+00     3.99214E-13     3.69776E+02     1.70715E+05     2.13091E+03     1.91644E+09
     3.02838E+01     1.57070E+00     3.14159E+00     4.19639E-13     3.75927E+02     2.53643E+05     1.73681E+03     1.91506E+09
     3.02838E+01     1.57071E+00     3.14159E+00     4.34819E-13     3.81948E+02     1.86300E+05     1.36104E+03     1.91321E+09
     3.02838E+01     1.57072E+00     3.14159E+00     4.50460E-13     3.87799E+02    -2.65230E+05     1.36517E+03     1.91103E+09
     3.02838E+01     1.57073E+00     3.14159E+00     4.78386E-13     3.93557E+02    -6.34865E+05     1.99480E+03     1.90919E+09
     3.02838E+01     1.57074E+00     3.14159E+00     5.17774E-13     3.99349E+02    -7.67477E+05     2.98668E+03     1.90782E+09
     3.02838E+01     1.57075E+00     3.14159E+00     5.65817E-13     4.05259E+02    -6.44338E+05     3.91521E+03     1.90742E+09
     3.02838E+01     1.57075E+00     3.14159E+00     6.26890E-13     4.11361E+02    -6.00957E+04     4.26961E+03     1.90771E+09
     3.02838E+01     1.57076E+00     3.14159E+00     7.07698E-13     4.17766E+02     1.68902E+05     4.08776E+03     1.90854E+09
     3.02838E+01     1.57077E+00     3.14159E+00     8.26187E-13     4.24670E+02    -3.41505E+05     4.09042E+03     1.90980E+09
     3.02838E+01     1.57077E+00     3.14159E+00     9.22752E-13     4.32055E+02    -9.47757E+05     4.72714E+03     1.90864E+09
     3.02838E+01     1.57078E+00     3.14159E+00     1.09214E-12     4.40035E+02     9.31024E+05     4.88975E+03     1.90743E+09
     3.02838E+01     1.57078E+00     3.14159E+00     1.57140E-12     4.49930E+02     2.70400E+06     3.82321E+03     1.90712E+09
     3.02838E+01     1.57079E+00     3.14159E+00     6.38247E-12     4.77648E+02     3.97942E+06     2.19625E+03     1.91061E+09
     3.02838E+01     1.57079E+00     3.14159E+00     1.18927E-10     8.87257E+02     3.36632E+06     4.33501E+02     1.92052E+09
     3.02838E+01     1.57079E+00     3.14159E+00     6.30727E-10     3.18587E+03     1.07653E+03    -3.09141E+02     1.92600E+09
     3.02838E+01     1.57080E+00     3.14159E+00     9.99998E-10     7.87618E+03     2.28315E+03    -9.15530E+01     1.92606E+09
     3.08612E+01     4.86288E-02     3.14159E+00     5.31998E-21     6.72088E-03    -4.75899E+09     9.98698E+07     7.81778E+06
     3.08612E+01     1.42876E-01     3.14159E+00     5.27347E-21     6.55872E-03    -4.75719E+09     2.97337E+08     4.55712E+07
     3.08612E+01     2.31287E-01     3.14159E+00     5.24560E-21     6.38330E-03    -4.75142E+09     4.86019E+08     6.07091E+07
     3.08612E+01     3.14225E-01     3.14159E+00     5.27636E-21     6.28863E-03    -4.73950E+09     6.57342E+08     6.84419E+07
     3.08612E+01     3.92028E-01     3.14159E+00     5.39776E-21     6.45793E-03    -4.71970E+09     7.99283E+08     7.44815E+07
     3.08612E+01     4.65013E-01     3.14159E+00     5.83727E-21     7.23220E-03    -4.69337E+09     8.85066E+08     8.10856E+07
     3.08612E+01     5.33480E-01     3.14159E+00     6.51999E-21     8.52203E-03    -4.66931E+09     9.32599E+08     9.02671E+07
     3.08612E+01     5.97708E-01     3.14159E+00     7.10083E-21     9.65355E-03    -4.64931E+09     1.00723E+09     1.04843E+08
     3.08612E+01     6.57959E-01     3.14159E+00     7.46290E-21     9.95402E-03    -4.62715E+09     1.13833E+09     1.30103E+08
     3.08612E+01     7.14480E-01     3.14159E+00     7.48331E-21     9.61236E-03    -4.59438E+09     1.30772E+09     1.70934E+08
     3.08612E+01     7.67502E-01     3.14159E+00     7.45728E-21     9.20297E-03    -4.54600E+09     1.48306E+09     2.32459E+08
     3.08612E+01     8.17240E-01     3.14159E+00     7.42308E-21     8.83893E-03    -4.47985E+09     1.64306E+09     3.19227E+08
     3.08612E+01     8.63899E-01     3.14159E+00     7.36195E-21     8.56442E-03    -4.39418E+09     1.78107E+09     4.34022E+08
     3.08612E+01     9.07670E-01     3.14159E+00     7.33690E-21     8.49365E-03    -4.27925E+09     1.90097E+09     5.76928E+08
     3.08612E+01     9.48730E-01     3.14159E+00     7.39570E-21     8.59744E-03    -4.12286E+09     1.99261E+09     7.45164E+08
     3.08612E+01     9.87248E-01     3.14159E+00     7.54490E-21     8.88281E-03    -3.91801E+09     2.03089E+09     9.32826E+08
     3.08612E+01     1.02338E+00     3.14159E+00     7.73500E-21     9.28211E-03    -3.66889E+09     2.01905E+09     1.13297E+09
     3.08612E+01     1.05728E+00     3.14159E+00     8.05709E-21     1.00386E-02    -3.38149E+09     1.96323E+09     1.33856E+09
     3.08612E+01     1.08908E+00     3.14159E+00     8.50428E-21     1.12324E-02    -3.05981E+09     1.86071E+09     1.53982E+09
     3.08612E+01     1.11890E+00     3.14159E+00     8.96683E-21     1.26946E-02    -2.71283E+09     1.72863E+09     1.72396E+09
     3.08612E+01     1.14689E+00     3.14159E+00     9.40584E-21     1.43342E-02    -2.35726E+09     1.57923E+09     1.87960E+09
     3.08612E+01     1.17314E+00     3.14159E+00     9.90690E-21     1.63573E-02    -2.00977E+09     1.41062E+09     2.00100E+09
     3.08612E+01     1.19776E+00     3.14159E+00     1.06254E-20     1.92646E-02    -1.67464E+09     1.21602E+09     2.08877E+09
     3.08612E+01     1.22086E+00     3.14159E+00     1.17324E-20     2.37734E-02    -1.33489E+09     1.00528E+09     2.14912E+09
     3.08612E+01     1.24253E+00     3.14159E+00     1.29265E-20     2.92543E-02    -9.83252E+08     8.23407E+08     2.19140E+09
     3.08612E+01     1.26286E+00     3.14159E+00     1.36031E-20     3.29650E-02    -6.82161E+08     7.06650E+08     2.21219E+09
     3.08612E+01     1.28193E+00     3.14159E+00     1.38755E-20     3.49422E-02    -4.55433E+08     6.33498E+08     2.20901E+09
     3.08612E+01     1.29982E+00     3.14159E+00     1.41156E-20     3.66262E-02    -2.93709E+08     5.66621E+08     2.20389E+09
     3.08612E+01     1.31660E+00     3.14159E+00     1.44249E-20     3.84798E-02    -1.79755E+08     4.93658E+08     2.19797E+09
     3.08612E+01     1.33234E+00     3.14159E+00     1.47553E-20     4.04417E-02    -9.81792E+07     4.14324E+08     2.19147E+09
     3.08612E+01     1.34711E+00     3.14159E+00     1.51279E-20     4.24616E-02    -4.79453E+07     3.33434E+08     2.18514E+09
     3.08612E+01     1.36096E+00     3.14159E+00     1.55067E-20     4.43898E-02    -3.90116E+07     2.64854E+08     2.17954E+09
     3.08612E+01     1.37396E+00     3.14159E+00     1.57946E-20     4.57943E-02    -6.00515E+07     2.28694E+08     2.17585E+09
     3.08612E+01     1.38615E+00     3.14159E+00     1.59386E-20     4.64494E-02    -6.98188E+07     2.33799E+08     2.17437E+09
     3.08612E+01     1.39758E+00     3.14159E+00     1.59859E-20     4.66856E-02    -2.61150E+07     2.64908E+08     2.17220E+09
     3.08612E+01     1.40831E+00     3.14159E+00     1.62994E-20     4.79726E-02     9.35333E+07     2.73657E+08     2.16922E+09
     3.08612E+01     1.41837E+00     3.14159E+00     1.68808E-20     5.03816E-02     1.94894E+08     2.35242E+08     2.16562E+09
     3.08612E+01     1.42781E+00     3.14159E+00     1.76088E-20     5.34359E-02     2.53074E+08     1.73426E+08     2.16120E+09
     3.08612E+01     1.43667E+00     3.14159E+00     1.82884E-20     5.63523E-02     2.73943E+08     1.07254E+08     2.15574E+09
     3.08612E+01     1.44498E+00     3.14159E+00     1.88020E-20     5.88427E-02     2.60300E+08     4.68159E+07     2.14942E+09
     3.08612E+01     1.45277E+00     3.14159E+00     1.91409E-20     6.07675E-02     2.28769E+08    -7.56527E+05     2.14260E+09
     3.08612E+01     1.46008E+00     3.14159E+00     1.94795E-20     6.21740E-02     1.88945E+08    -3.21289E+07     2.13423E+09
     3.08612E+01     1.46694E+00     3.14159E+00     2.02448E-20     6.32206E-02     1.55190E+08    -4.59825E+07     2.11984E+09
     3.08612E+01     1.47338E+00     3.14159E+00     2.31530E-20     6.40395E-02     1.18294E+08    -4.52360E+07     2.09299E+09
     3.08612E+01     1.47941E+00     3.14159E+00     3.32618E-20     6.48271E-02     7.40729E+07    -3.65080E+07     2.05260E+09
     3.08612E+01     1.48507E+00     3.14159E+00     5.92278E-20     6.58405E-02     4.75031E+07    -2.57031E+07     2.01502E+09
     3.08612E+01     1.49038E+00     3.14159E+00     1.17858E-19     6.74865E-02     3.04214E+07    -1.56432E+07     1.99102E+09
     3.08612E+01     1.49537E+00     3.14159E+00     2.44348E-19     7.04493E-02     1.20575E+07    -6.39092E+06     1.97842E+09
     3.08612E+01     1.50004E+00     3.14159E+00     4.52582E-19     7.55438E-02     3.87965E+06     1.45102E+06     1.97296E+09
     3.08612E+01     1.50442E+00     3.14159E+00     7.12471E-19     8.32145E-02     3.56997E+06     5.37703E+06     1.96939E+09
     3.08612E+01     1.50854E+00     3.14159E+00     1.25362E-18     9.47652E-02    -1.70340E+07     2.04602E+06     1.96603E+09
     3.08612E+01     1.51240E+00     3.14159E+00     2.26467E-18     1.14341E-01    -3.68240E+06    -2.79351E+06     1.96224E+09
     3.08612E+01     1.51602E+00     3.14159E+00     5.00663E-18     1.50949E-01     1.90772E+06    -3.91734E+06     1.95630E+09
     3.08612E+01     1.51941E+00     3.14159E+00     8.78670E-18     2.13481E-01     6.07504E+06    -3.45925E+06     1.95128E+09
     3.08612E+01     1.52260E+00     3.14159E+00     1.47422E-17     3.09852E-01     4.26210E+06    -2.25029E+06     1.94731E+09
     3.08612E+01     1.52558E+00     3.14159E+00     2.47538E-17     4.56548E-01     1.25448E+06    -1.22321E+06     1.94377E+09
     3.08612E+01     1.52839E+00     3.14159E+00     4.09828E-17     6.78868E-01    -9.90912E+05    -5.15630E+05     1.94066E+09
     3.08612E+01     1.53102E+00     3.14159E+00     6.62918E-17     1.00993E+00    -1.97677E+06    -8.83130E+04     1.93797E+09
     3.08612E+01     1.53348E+00     3.14159E+00     1.05273E-16     1.49422E+00    -2.37483E+06     1.67192E+05     1.93564E+09
     3.08612E+01     1.53580E+00     3.14159E+00     1.64259E-16     2.19070E+00    -2.62134E+06     3.48031E+05     1.93364E+09
     3.08612E+01     1.53797E+00     3.14159E+00     2.52020E-16     3.17728E+00    -2.77191E+06     4.84340E+05     1.93193E+09
     3.08612E+01     1.54000E+00     3.14159E+00     3.79940E-16     4.55160E+00    -2.73494E+06     5.75092E+05     1.93047E+09
     3.08612E+01     1.54191E+00     3.14159E+00     5.61472E-16     6.43169E+00    -2.57715E+06     6.27187E+05     1.92928E+09
     3.08612E+01     1.54371E+00     3.14159E+00     8.12632E-16     8.95450E+00    -2.49177E+06     6.60064E+05     1.92827E+09
     3.08612E+01     1.54539E+00     3.14159E+00     1.15182E-15     1.22726E+01    -2.47393E+06     6.85026E+05     1.92738E+09
     3.08612E+01     1.54696E+00     3.14159E+00     1.59715E-15     1.65480E+01    -2.44020E+06     6.92701E+05     1.92660E+09
     3.08612E+01     1.54844E+00     3.14159E+00     2.16483E-15     2.19404E+01    -2.31659E+06     6.67146E+05     1.92596E+09
     3.08612E+01     1.54983E+00     3.14159E+00     2.86962E-15     2.85984E+01    -2.07786E+06     6.12058E+05     1.92543E+09
     3.08612E+01     1.55113E+00     3.14159E+00     3.74094E-15     3.66707E+01    -1.69908E+06     5.35792E+05     1.92491E+09
     3.08612E+01     1.55235E+00     3.14159E+00     4.80739E-15     4.63155E+01    -1.29566E+06     4.38746E+05     1.92440E+09
     3.08612E+01     1.55350E+00     3.14159E+00     6.09485E-15     5.76919E+01    -9.95766E+05     3.16707E+05     1.92389E+09