 TITLE= "ZEUSMP/2 FIELD DATA AT TIME:    7.98555004397236      yr "
 VARIABLES= "X","Y","Z","rho","e","V1","V2","V3"
 ZONE I=  100 , J=  160 , K=    1 , F=POINT
     3.02838E+01     4.86288E-02     3.14159E+00     3.20039E-20     7.72784E-02    -4.38335E+09     1.36843E+08     4.95906E+06
     3.02838E+01     1.42876E-01     3.14159E+00     3.62225E-20     9.11859E-02    -4.34347E+09     3.97232E+08     1.31426E+07
     3.02838E+01     2.31287E-01     3.14159E+00     3.38864E-20     8.22218E-02    -4.36042E+09     5.82922E+08     2.23372E+07
     3.02838E+01     3.14225E-01     3.14159E+00     2.28162E-20     4.36531E-02    -4.53110E+09     6.58436E+08     3.21616E+07
     3.02838E+01     3.92028E-01     3.14159E+00     1.57859E-20     2.40022E-02    -4.68768E+09     6.97936E+08     4.48652E+07
     3.02838E+01     4.65013E-01     3.14159E+00     1.23684E-20     1.63779E-02    -4.74480E+09     8.08296E+08     6.59744E+07
     3.02838E+01     5.33480E-01     3.14159E+00     1.07172E-20     1.32158E-02    -4.73659E+09     1.00506E+09     1.01518E+08
     3.02838E+01     5.97708E-01     3.14159E+00     9.58270E-21     1.12562E-02    -4.70342E+09     1.22435E+09     1.56270E+08
     3.02838E+01     6.57959E-01     3.14159E+00     8.63857E-21     9.77057E-03    -4.65265E+09     1.42309E+09     2.32529E+08
     3.02838E+01     7.14480E-01     3.14159E+00     7.83286E-21     8.55743E-03    -4.58787E+09     1.58842E+09     3.32320E+08
     3.02838E+01     7.67502E-01     3.14159E+00     7.21544E-21     7.59232E-03    -4.50584E+09     1.72522E+09     4.58837E+08
     3.02838E+01     8.17240E-01     3.14159E+00     7.02273E-21     7.27371E-03    -4.38229E+09     1.85335E+09     6.14852E+08
     3.02838E+01     8.63899E-01     3.14159E+00     7.12653E-21     7.46063E-03    -4.19309E+09     1.95823E+09     7.98836E+08
     3.02838E+01     9.07670E-01     3.14159E+00     7.37792E-21     7.93530E-03    -3.93478E+09     2.00115E+09     1.00592E+09
     3.02838E+01     9.48730E-01     3.14159E+00     7.76168E-21     8.73080E-03    -3.61533E+09     1.98549E+09     1.22853E+09
     3.02838E+01     9.87248E-01     3.14159E+00     8.37486E-21     1.01537E-02    -3.24521E+09     1.91864E+09     1.45555E+09
     3.02838E+01     1.02338E+00     3.14159E+00     9.20845E-21     1.23836E-02    -2.83965E+09     1.79862E+09     1.67163E+09
     3.02838E+01     1.05728E+00     3.14159E+00     1.01891E-20     1.54342E-02    -2.42159E+09     1.64095E+09     1.86014E+09
     3.02838E+01     1.08908E+00     3.14159E+00     1.13453E-20     1.95052E-02    -2.01263E+09     1.45107E+09     2.00955E+09
     3.02838E+01     1.11890E+00     3.14159E+00     1.28922E-20     2.54841E-02    -1.61214E+09     1.23073E+09     2.11497E+09
     3.02838E+01     1.14689E+00     3.14159E+00     1.48267E-20     3.36814E-02    -1.20013E+09     1.02850E+09     2.18252E+09
     3.02838E+01     1.17314E+00     3.14159E+00     1.61118E-20     3.99672E-02    -8.36798E+08     9.16215E+08     2.21438E+09
     3.02838E+01     1.19776E+00     3.14159E+00     1.66022E-20     4.30662E-02    -5.73683E+08     8.82031E+08     2.21456E+09
     3.02838E+01     1.22086E+00     3.14159E+00     1.70412E-20     4.57709E-02    -3.86412E+08     8.64630E+08     2.21132E+09
     3.02838E+01     1.24253E+00     3.14159E+00     1.75722E-20     4.87707E-02    -2.54094E+08     8.41836E+08     2.20493E+09
     3.02838E+01     1.26286E+00     3.14159E+00     1.81633E-20     5.19729E-02    -1.64040E+08     8.15181E+08     2.19676E+09
     3.02838E+01     1.28193E+00     3.14159E+00     1.87696E-20     5.52108E-02    -1.08292E+08     7.88359E+08     2.18805E+09
     3.02838E+01     1.29982E+00     3.14159E+00     1.93611E-20     5.84227E-02    -6.42368E+07     7.63105E+08     2.17929E+09
     3.02838E+01     1.31660E+00     3.14159E+00     1.99569E-20     6.15927E-02    -2.35688E+07     7.39100E+08     2.17061E+09
     3.02838E+01     1.33234E+00     3.14159E+00     2.05581E-20     6.47332E-02     1.29558E+06     7.15004E+08     2.16220E+09
     3.02838E+01     1.34711E+00     3.14159E+00     2.11215E-20     6.77212E-02     2.38351E+05     6.93289E+08     2.15475E+09
     3.02838E+01     1.36096E+00     3.14159E+00     2.16003E-20     7.03009E-02    -4.41616E+06     6.76534E+08     2.14844E+09
     3.02838E+01     1.37396E+00     3.14159E+00     2.20122E-20     7.24810E-02    -1.47267E+07     6.63481E+08     2.14354E+09
     3.02838E+01     1.38615E+00     3.14159E+00     2.23685E-20     7.43890E-02    -1.25130E+07     6.52594E+08     2.13965E+09
     3.02838E+01     1.39758E+00     3.14159E+00     2.26975E-20     7.62266E-02     2.79191E+06     6.40798E+08     2.13616E+09
     3.02838E+01     1.40831E+00     3.14159E+00     2.30102E-20     7.80106E-02     2.52722E+07     6.14943E+08     2.13264E+09
     3.02838E+01     1.41837E+00     3.14159E+00     2.33973E-20     8.02600E-02     5.19085E+07     5.62631E+08     2.12875E+09
     3.02838E+01     1.42781E+00     3.14159E+00     2.38245E-20     8.28035E-02     7.33536E+07     4.87941E+08     2.12437E+09
     3.02838E+01     1.43667E+00     3.14159E+00     2.42294E-20     8.52942E-02     8.71120E+07     4.01956E+08     2.11937E+09
     3.02838E+01     1.44498E+00     3.14159E+00     2.45920E-20     8.75816E-02     8.64535E+07     3.17056E+08     2.11391E+09
     3.02838E+01     1.45277E+00     3.14159E+00     2.48749E-20     8.94120E-02     8.17163E+07     2.41474E+08     2.10784E+09
     3.02838E+01     1.46008E+00     3.14159E+00     2.51007E-20     9.08686E-02     7.26761E+07     1.77386E+08     2.10088E+09
     3.02838E+01     1.46694E+00     3.14159E+00     2.52921E-20     9.20128E-02     6.19099E+07     1.25463E+08     2.09252E+09
     3.02838E+01     1.47338E+00     3.14159E+00     2.54645E-20     9.29252E-02     5.05031E+07     8.50142E+07     2.08207E+09
     3.02838E+01     1.47941E+00     3.14159E+00     2.56182E-20     9.36757E-02     3.57471E+07     5.59303E+07     2.07011E+09
     3.02838E+01     1.48507E+00     3.14159E+00     2.57315E-20     9.42912E-02     2.33569E+07     3.72242E+07     2.06096E+09
     3.02838E+01     1.49038E+00     3.14159E+00     2.57853E-20     9.48138E-02     1.67428E+07     2.53208E+07     2.05581E+09
     3.02838E+01     1.49537E+00     3.14159E+00     2.58302E-20     9.52724E-02     1.34616E+07     1.69094E+07     2.04876E+09
     3.02838E+01     1.50004E+00     3.14159E+00     2.59074E-20     9.56797E-02     1.12331E+07     1.04498E+07     2.03853E+09
     3.02838E+01     1.50442E+00     3.14159E+00     2.67161E-20     9.60500E-02     7.37984E+06     5.84325E+06     2.03476E+09
     3.02838E+01     1.50854E+00     3.14159E+00     3.18716E-20     9.64207E-02    -2.92472E+05     4.04412E+06     2.03118E+09
     3.02838E+01     1.51240E+00     3.14159E+00     6.19166E-20     9.69525E-02    -9.21471E+06     3.87108E+06     2.01294E+09
     3.02838E+01     1.51602E+00     3.14159E+00     1.62110E-19     9.80960E-02    -7.55735E+06     3.60704E+06     1.99641E+09
     3.02838E+01     1.51941E+00     3.14159E+00     4.96986E-19     1.01144E-01    -1.69181E+06     3.29273E+06     1.98832E+09
     3.02838E+01     1.52260E+00     3.14159E+00     1.15939E-18     1.08103E-01     2.42758E+05     2.83680E+06     1.98631E+09
     3.02838E+01     1.52558E+00     3.14159E+00     2.10989E-18     1.20574E-01    -1.60658E+06     2.48110E+06     1.98559E+09
     3.02838E+01     1.52839E+00     3.14159E+00     3.89027E-18     1.41433E-01    -2.95994E+06     2.39246E+06     1.98299E+09
     3.02838E+01     1.53102E+00     3.14159E+00     6.97521E-18     1.75949E-01    -3.01364E+06     2.36555E+06     1.97858E+09
     3.02838E+01     1.53348E+00     3.14159E+00     1.16851E-17     2.30215E-01    -2.89391E+06     2.28635E+06     1.97463E+09
     3.02838E+01     1.53580E+00     3.14159E+00     1.81423E-17     3.09788E-01    -2.41095E+06     2.16156E+06     1.97248E+09
     3.02838E+01     1.53797E+00     3.14159E+00     2.77126E-17     4.22170E-01    -1.72730E+06     1.99134E+06     1.97106E+09
     3.02838E+01     1.54000E+00     3.14159E+00     4.18434E-17     5.78810E-01    -1.20988E+06     1.79620E+06     1.96972E+09
     3.02838E+01     1.54191E+00     3.14159E+00     6.14236E-17     7.92767E-01    -8.70632E+05     1.60201E+06     1.96852E+09
     3.02838E+01     1.54371E+00     3.14159E+00     8.80990E-17     1.07779E+00    -6.97586E+05     1.42421E+06     1.96750E+09
     3.02838E+01     1.54539E+00     3.14159E+00     1.24768E-16     1.45117E+00    -5.38957E+05     1.26980E+06     1.96672E+09
     3.02838E+01     1.54696E+00     3.14159E+00     1.73554E-16     1.93303E+00    -3.36337E+05     1.12551E+06     1.96586E+09
     3.02838E+01     1.54844E+00     3.14159E+00     2.35943E-16     2.54282E+00    -1.87214E+04     9.75594E+05     1.96507E+09
     3.02838E+01     1.54983E+00     3.14159E+00     3.17619E-16     3.30300E+00     4.79114E+03     8.36240E+05     1.96465E+09
     3.02838E+01     1.55113E+00     3.14159E+00     4.30434E-16     4.25140E+00     1.27075E+05     7.16750E+05     1.96425E+09
     3.02838E+01     1.55235E+00     3.14159E+00     5.80142E-16     5.43549E+00     4.33311E+05     5.96282E+05     1.96352E+09
     3.02838E+01     1.55350E+00     3.14159E+00     7.56551E-16     6.88256E+00     5.86246E+05     4.79127E+05     1.96267E+09
     3.02838E+01     1.55457E+00     3.14159E+00     9.58170E-16     8.60082E+00     4.81459E+05     3.83358E+05     1.96193E+09
     3.02838E+01     1.55558E+00     3.14159E+00     1.19815E-15     1.06011E+01     3.42789E+05     3.17133E+05     1.96136E+09
     3.02838E+01     1.55653E+00     3.14159E+00     1.47252E-15     1.28973E+01     2.96080E+05     2.73092E+05     1.96100E+09
     3.02838E+01     1.55742E+00     3.14159E+00     1.79033E-15     1.54979E+01     1.71033E+05     2.45117E+05     1.96059E+09
     3.02838E+01     1.55825E+00     3.14159E+00     2.16938E-15     1.84256E+01    -2.27081E+05     2.44738E+05     1.96000E+09
     3.02838E+01     1.55903E+00     3.14159E+00     2.59291E-15     2.16944E+01    -9.16826E+05     2.89034E+05     1.95965E+09
     3.02838E+01     1.55976E+00     3.14159E+00     3.04590E-15     2.52878E+01    -1.08987E+06     3.59745E+05     1.95948E+09
     3.02838E+01     1.56045E+00     3.14159E+00     3.54852E-15     2.91927E+01    -8.98770E+05     4.16198E+05     1.95952E+09
     3.02838E+01     1.56109E+00     3.14159E+00     4.16022E-15     3.34379E+01    -8.26484E+05     4.52038E+05     1.95934E+09
     3.02838E+01     1.56170E+00     3.14159E+00     4.91091E-15     3.80839E+01    -1.55257E+06     5.02251E+05     1.95884E+09
     3.02838E+01     1.56226E+00     3.14159E+00     5.77118E-15     4.31745E+01    -2.53967E+06     5.93483E+05     1.95822E+09
     3.02838E+01     1.56280E+00     3.14159E+00     6.69790E-15     4.87061E+01    -2.87426E+06     7.05559E+05     1.95767E+09
     3.02838E+01     1.56330E+00     3.14159E+00     7.66177E-15     5.46413E+01    -2.38798E+06     7.96860E+05     1.95715E+09
     3.02838E+01     1.56376E+00     3.14159E+00     8.62795E-15     6.09193E+01    -1.10655E+06     8.33980E+05     1.95661E+09
     3.02838E+01     1.56420E+00     3.14159E+00     9.48119E-15     6.74305E+01     2.97374E+05     8.07813E+05     1.95594E+09
     3.02838E+01     1.56461E+00     3.14159E+00     1.02578E-14     7.40523E+01     8.76592E+05     7.43149E+05     1.95515E+09
     3.02838E+01     1.56500E+00     3.14159E+00     1.09309E-14     8.06836E+01     9.46490E+05     6.72850E+05     1.95446E+09
     3.02838E+01     1.56536E+00     3.14159E+00     1.15422E-14     8.72468E+01     8.60969E+05     6.11397E+05     1.95387E+09
     3.02838E+01     1.56570E+00     3.14159E+00     1.20735E-14     9.36840E+01     6.55051E+05     5.62429E+05     1.95350E+09
     3.02838E+01     1.56602E+00     3.14159E+00     1.25827E-14     9.99590E+01     4.32921E+05     5.27104E+05     1.95357E+09
     3.02838E+01     1.56632E+00     3.14159E+00     1.34700E-14     1.06151E+02     3.50733E+05     4.98985E+05     1.95373E+09
     3.02838E+01     1.56660E+00     3.14159E+00     1.50130E-14     1.12475E+02     7.18519E+05     4.69542E+05     1.95412E+09
     3.02838E+01     1.56687E+00     3.14159E+00     1.66560E-14     1.19044E+02     8.66887E+05     4.36233E+05     1.95432E+09
     3.02838E+01     1.56711E+00     3.14159E+00     1.76505E-14     1.25695E+02    -4.03549E+04     4.15399E+05     1.95399E+09
     3.02838E+01     1.56734E+00     3.14159E+00     1.86839E-14     1.32277E+02    -1.87403E+06     4.25708E+05     1.95345E+09
     3.02838E+01     1.56756E+00     3.14159E+00     1.98603E-14     1.38803E+02    -1.44473E+06     4.47544E+05     1.95353E+09
     3.02838E+01     1.56777E+00     3.14159E+00     2.09452E-14     1.45264E+02     8.68768E+04     4.51396E+05     1.95402E+09
     3.02838E+01     1.56796E+00     3.14159E+00     2.19166E-14     1.51612E+02     8.25227E+05     4.35290E+05     1.95453E+09
     3.02838E+01     1.56814E+00     3.14159E+00     2.27723E-14     1.57803E+02     1.13975E+06     4.10707E+05     1.95435E+09
     3.02838E+01     1.56831E+00     3.14159E+00     2.33660E-14     1.63784E+02     6.15933E+05     3.89998E+05     1.95348E+09
     3.02838E+01     1.56846E+00     3.14159E+00     2.41962E-14     1.69554E+02    -1.77554E+06     3.90893E+05     1.95188E+09
     3.02838E+01     1.56861E+00     3.14159E+00     2.57426E-14     1.75221E+02    -4.61687E+06     4.26071E+05     1.95059E+09
     3.02838E+01     1.56875E+00     3.14159E+00     2.79375E-14     1.80921E+02    -6.72822E+06     4.88882E+05     1.95000E+09
     3.02838E+01     1.56888E+00     3.14159E+00     3.04835E-14     1.86727E+02    -7.94676E+06     5.64580E+05     1.94985E+09
     3.02838E+01     1.56900E+00     3.14159E+00     3.31559E-14     1.92647E+02    -8.03737E+06     6.40953E+05     1.94985E+09
     3.02838E+01     1.56912E+00     3.14159E+00     3.58366E-14     1.98658E+02    -7.23719E+06     7.07794E+05     1.94981E+09
     3.02838E+01     1.56923E+00     3.14159E+00     3.84473E-14     2.04722E+02    -5.66872E+06     7.58377E+05     1.94972E+09
     3.02838E+01     1.56933E+00     3.14159E+00     4.09182E-14     2.10793E+02    -3.42293E+06     7.88250E+05     1.94956E+09
     3.02838E+01     1.56942E+00     3.14159E+00     4.31927E-14     2.16826E+02    -7.50042E+05     7.95406E+05     1.94934E+09
     3.02838E+01     1.56951E+00     3.14159E+00     4.52813E-14     2.22775E+02     1.09801E+06     7.83273E+05     1.94902E+09
     3.02838E+01     1.56959E+00     3.14159E+00     4.73544E-14     2.28613E+02     2.52113E+06     7.57907E+05     1.94857E+09
     3.02838E+01     1.56967E+00     3.14159E+00     4.94181E-14     2.34328E+02     3.84295E+06     7.22855E+05     1.94801E+09
     3.02838E+01     1.56975E+00     3.14159E+00     5.14754E-14     2.39911E+02     4.95210E+06     6.80807E+05     1.94739E+09
     3.02838E+01     1.56981E+00     3.14159E+00     5.35387E-14     2.45358E+02     6.00634E+06     6.33911E+05     1.94674E+09
     3.02838E+01     1.56988E+00     3.14159E+00     5.56266E-14     2.50664E+02     7.06975E+06     5.83145E+05     1.94602E+09
     3.02838E+01     1.56994E+00     3.14159E+00     5.77713E-14     2.55830E+02     8.12790E+06     5.29163E+05     1.94519E+09
     3.02838E+01     1.57000E+00     3.14159E+00     6.00198E-14     2.60860E+02     9.15060E+06     4.72705E+05     1.94420E+09
     3.02838E+01     1.57005E+00     3.14159E+00     6.24332E-14     2.65761E+02     1.00751E+07     4.14697E+05     1.94300E+09
     3.02838E+01     1.57010E+00     3.14159E+00     6.50879E-14     2.70545E+02     1.07767E+07     3.56433E+05     1.94159E+09
     3.02838E+01     1.57015E+00     3.14159E+00     6.80742E-14     2.75228E+02     1.11039E+07     2.99691E+05     1.93996E+09
     3.02838E+01     1.57019E+00     3.14159E+00     7.14829E-14     2.79828E+02     1.09197E+07     2.46615E+05     1.93815E+09
     3.02838E+01     1.57023E+00     3.14159E+00     7.53744E-14     2.84366E+02     1.02548E+07     1.99188E+05     1.93621E+09
     3.02838E+01     1.57027E+00     3.14159E+00     7.97390E-14     2.88859E+02     9.21944E+06     1.58683E+05     1.93421E+09
     3.02838E+01     1.57031E+00     3.14159E+00     8.44914E-14     2.93318E+02     8.02199E+06     1.25449E+05     1.93219E+09
     3.02838E+01     1.57034E+00     3.14159E+00     8.95194E-14     2.97748E+02     6.85913E+06     9.89380E+04     1.93021E+09
     3.02838E+01     1.57037E+00     3.14159E+00     9.46822E-14     3.02144E+02     5.89738E+06     7.79914E+04     1.92828E+09
     3.02838E+01     1.57040E+00     3.14159E+00     9.96425E-14     3.06492E+02     5.20544E+06     6.12143E+04     1.92640E+09
     3.02838E+01     1.57043E+00     3.14159E+00     1.03899E-13     3.10763E+02     4.71708E+06     4.74160E+04     1.92454E+09
     3.02838E+01     1.57046E+00     3.14159E+00     1.07369E-13     3.14919E+02     4.41708E+06     3.57149E+04     1.92267E+09
     3.02838E+01     1.57048E+00     3.14159E+00     1.10626E-13     3.18941E+02     4.17332E+06     2.55556E+04     1.92078E+09
     3.02838E+01     1.57051E+00     3.14159E+00     1.14150E-13     3.22829E+02     3.87067E+06     1.67809E+04     1.91888E+09
     3.02838E+01     1.57053E+00     3.14159E+00     1.16999E-13     3.26579E+02     3.43719E+06     9.47125E+03     1.91695E+09
     3.02838E+01     1.57055E+00     3.14159E+00     1.18172E-13     3.30156E+02     2.90644E+06     3.73359E+03     1.91502E+09
     3.02838E+01     1.57057E+00     3.14159E+00     1.17941E-13     3.33525E+02     2.35209E+06    -4.84028E+02     1.91320E+09
     3.02838E+01     1.57058E+00     3.14159E+00     1.16566E-13     3.36662E+02     1.83480E+06    -3.36805E+03     1.91167E+09
     3.02838E+01     1.57060E+00     3.14159E+00     1.16447E-13     3.39586E+02     1.30299E+06    -5.10240E+03     1.91057E+09
     3.02838E+01     1.57062E+00     3.14159E+00     1.18426E-13     3.42350E+02     8.31159E+05    -5.86186E+03     1.90988E+09
     3.02838E+01     1.57063E+00     3.14159E+00     1.24666E-13     3.45033E+02     5.66940E+05    -5.96537E+03     1.90941E+09
     3.02838E+01     1.57065E+00     3.14159E+00     1.36449E-13     3.47735E+02     5.36886E+05    -5.83576E+03     1.90894E+09
     3.02838E+01     1.57066E+00     3.14159E+00     1.50604E-13     3.50522E+02     7.10917E+05    -5.81512E+03     1.90821E+09
     3.02838E+01     1.57067E+00     3.14159E+00     1.62635E-13     3.53374E+02     8.88492E+05    -6.03537E+03     1.90741E+09
     3.02838E+01     1.57068E+00     3.14159E+00     1.74172E-13     3.56250E+02     9.27778E+05    -6.38615E+03     1.90666E+09
     3.02838E+01     1.57069E+00     3.14159E+00     1.90790E-13     3.59174E+02     7.58939E+05    -6.64766E+03     1.90612E+09
     3.02838E+01     1.57070E+00     3.14159E+00     2.17000E-13     3.62237E+02     5.84567E+05    -6.70418E+03     1.90585E+09
     3.02838E+01     1.57071E+00     3.14159E+00     2.52557E-13     3.65546E+02     4.91588E+05    -6.61396E+03     1.90572E+09
     3.02838E+01     1.57072E+00     3.14159E+00     2.91817E-13     3.69144E+02     3.60439E+05    -6.42005E+03     1.90559E+09
     3.02838E+01     1.57073E+00     3.14159E+00     3.27977E-13     3.72987E+02     1.90904E+05    -6.10571E+03     1.90534E+09
     3.02838E+01     1.57074E+00     3.14159E+00     3.58810E-13     3.76981E+02     6.61275E+04    -5.69139E+03     1.90484E+09
     3.02838E+01     1.57075E+00     3.14159E+00     3.88509E-13     3.81057E+02    -1.75523E+05    -5.12118E+03     1.90431E+09
     3.02838E+01     1.57075E+00     3.14159E+00     4.29138E-13     3.85240E+02    -7.41158E+05    -4.11628E+03     1.90450E+09
     3.02838E+01     1.57076E+00     3.14159E+00     4.92608E-13     3.89663E+02    -1.21659E+06    -2.57358E+03     1.90566E+09
     3.02838E+01     1.57077E+00     3.14159E+00     6.03272E-13     3.94596E+02    -1.67624E+06    -6.21544E+02     1.90921E+09
     3.02838E+01     1.57077E+00     3.14159E+00     7.83970E-13     4.00454E+02     9.14719E+05     3.16657E+02     1.91311E+09
     3.02838E+01     1.57078E+00     3.14159E+00     9.60669E-13     4.07364E+02     1.90093E+06    -2.16876E+02     1.91040E+09
     3.02838E+01     1.57078E+00     3.14159E+00     1.08616E-12     4.14968E+02     3.01057E+05    -6.28936E+02     1.90287E+09
     3.02838E+01     1.57079E+00     3.14159E+00     2.79785E-12     4.28503E+02    -5.18339E+05    -2.08703E+02     1.90248E+09
     3.02838E+01     1.57079E+00     3.14159E+00     1.32710E-10     8.71452E+02     1.53088E+06    -3.38555E+01     1.91846E+09
     3.02838E+01     1.57079E+00     3.14159E+00     6.26275E-10     3.19868E+03     1.22086E+03    -2.05750E+02     1.92595E+09
     3.02838E+01     1.57080E+00     3.14159E+00     9.99999E-10     7.87619E+03     2.05982E+03    -6.14215E+01     1.92606E+09
     3.08612E+01     4.86288E-02     3.14159E+00     3.16108E-20     7.57003E-02    -4.34154E+09     1.45402E+08     5.37428E+06
     3.08612E+01     1.42876E-01     3.14159E+00     3.57749E-20     8.92765E-02    -4.30314E+09     3.94215E+08     1.33484E+07
     3.08612E+01     2.31287E-01     3.14159E+00     3.27120E-20     7.75435E-02    -4.33216E+09     5.26389E+08     2.25009E+07
     3.08612E+01     3.14225E-01     3.14159E+00     2.12595E-20     3.87224E-02    -4.51782E+09     5.76504E+08     3.22399E+07
     3.08612E+01     3.92028E-01     3.14159E+00     1.49243E-20     2.18559E-02    -4.66266E+09     6.37232E+08     4.48848E+07
     3.08612E+01     4.65013E-01     3.14159E+00     1.18917E-20     1.53597E-02    -4.71272E+09     7.71366E+08     6.64969E+07
     3.08612E+01     5.33480E-01     3.14159E+00     1.03947E-20     1.25854E-02    -4.70224E+09     9.80260E+08     1.03628E+08
     3.08612E+01     5.97708E-01     3.14159E+00     9.28444E-21     1.07136E-02    -4.66820E+09     1.19926E+09     1.61324E+08
     3.08612E+01     6.57959E-01     3.14159E+00     8.33606E-21     9.25164E-03    -4.61758E+09     1.39292E+09     2.41796E+08
     3.08612E+01     7.14480E-01     3.14159E+00     7.52965E-21     8.04871E-03    -4.55271E+09     1.55167E+09     3.47351E+08
     3.08612E+01     7.67502E-01     3.14159E+00     6.98080E-21     7.19228E-03    -4.46769E+09     1.68624E+09     4.81978E+08
     3.08612E+01     8.17240E-01     3.14159E+00     6.89031E-21     7.04571E-03    -4.33549E+09     1.81448E+09     6.48306E+08
     3.08612E+01     8.63899E-01     3.14159E+00     7.00703E-21     7.25574E-03    -4.13466E+09     1.90520E+09     8.44517E+08
     3.08612E+01     9.07670E-01     3.14159E+00     7.23860E-21     7.69787E-03    -3.86316E+09     1.92740E+09     1.06431E+09
     3.08612E+01     9.48730E-01     3.14159E+00     7.61476E-21     8.49152E-03    -3.52968E+09     1.89138E+09     1.29800E+09
     3.08612E+01     9.87248E-01     3.14159E+00     8.21550E-21     9.92324E-03    -3.14613E+09     1.79712E+09     1.53123E+09
     3.08612E+01     1.02338E+00     3.14159E+00     8.99948E-21     1.20989E-02    -2.73120E+09     1.65097E+09     1.74542E+09
     3.08612E+01     1.05728E+00     3.14159E+00     9.88020E-21     1.49510E-02    -2.31224E+09     1.47688E+09     1.92239E+09
     3.08612E+01     1.08908E+00     3.14159E+00     1.08573E-20     1.85127E-02    -1.91519E+09     1.28755E+09     2.05147E+09
     3.08612E+01     1.11890E+00     3.14159E+00     1.21619E-20     2.35785E-02    -1.54182E+09     1.08050E+09     2.13287E+09
     3.08612E+01     1.14689E+00     3.14159E+00     1.39627E-20     3.11607E-02    -1.16226E+09     8.78516E+08     2.18565E+09
     3.08612E+01     1.17314E+00     3.14159E+00     1.54195E-20     3.83264E-02    -8.14618E+08     7.33072E+08     2.18679E+09
     3.08612E+01     1.19776E+00     3.14159E+00     1.61772E-20     4.28143E-02    -5.49651E+08     6.47468E+08     2.18471E+09
     3.08612E+01     1.22086E+00     3.14159E+00     1.67449E-20     4.63747E-02    -3.57080E+08     5.77248E+08     2.17997E+09
     3.08612E+01     1.24253E+00     3.14159E+00     1.73379E-20     4.99938E-02    -2.18351E+08     4.96304E+08     2.17290E+09
     3.08612E+01     1.26286E+00     3.14159E+00     1.79507E-20     5.36870E-02    -1.24285E+08     4.06228E+08     2.16406E+09
     3.08612E+01     1.28193E+00     3.14159E+00     1.85285E-20     5.72553E-02    -7.15039E+07     3.20873E+08     2.15416E+09
     3.08612E+01     1.29982E+00     3.14159E+00     1.91175E-20     6.04850E-02    -2.68290E+07     2.44368E+08     2.14422E+09
     3.08612E+01     1.31660E+00     3.14159E+00     1.96658E-20     6.36507E-02     2.52463E+07     1.63335E+08     2.13522E+09
     3.08612E+01     1.33234E+00     3.14159E+00     2.02008E-20     6.70757E-02     5.40618E+07     7.69844E+07     2.12647E+09
     3.08612E+01     1.34711E+00     3.14159E+00     2.15709E-20     7.03160E-02     4.00405E+07     4.50796E+06     2.12761E+09
     3.08612E+01     1.36096E+00     3.14159E+00     2.36659E-20     7.30498E-02     7.27959E+06    -3.31205E+07     2.13429E+09
     3.08612E+01     1.37396E+00     3.14159E+00     2.39321E-20     7.50862E-02    -2.72771E+07    -3.15459E+07     2.12458E+09
     3.08612E+01     1.38615E+00     3.14159E+00     2.37921E-20     7.65432E-02    -3.96190E+07    -4.79734E+06     2.12061E+09
     3.08612E+01     1.39758E+00     3.14159E+00     2.35938E-20     7.76417E-02    -3.22609E+07     3.52709E+07     2.11822E+09
     3.08612E+01     1.40831E+00     3.14159E+00     2.36516E-20     7.91129E-02     3.08090E+07     6.77678E+07     2.11583E+09
     3.08612E+01     1.41837E+00     3.14159E+00     2.38112E-20     8.13885E-02     1.01074E+08     7.71522E+07     2.11095E+09
     3.08612E+01     1.42781E+00     3.14159E+00     2.40787E-20     8.40549E-02     1.57231E+08     6.89584E+07     2.10489E+09
     3.08612E+01     1.43667E+00     3.14159E+00     2.44307E-20     8.67762E-02     1.92046E+08     5.07368E+07     2.09863E+09
     3.08612E+01     1.44498E+00     3.14159E+00     2.47766E-20     8.91684E-02     1.98240E+08     2.71260E+07     2.09200E+09
     3.08612E+01     1.45277E+00     3.14159E+00     2.50763E-20     9.11429E-02     1.85262E+08     3.62007E+06     2.08442E+09
     3.08612E+01     1.46008E+00     3.14159E+00     2.53292E-20     9.26720E-02     1.61130E+08    -1.43003E+07     2.07530E+09
     3.08612E+01     1.46694E+00     3.14159E+00     2.56162E-20     9.38356E-02     1.29870E+08    -2.49765E+07     2.06414E+09
     3.08612E+01     1.47338E+00     3.14159E+00     2.64545E-20     9.47361E-02     9.54200E+07    -2.73509E+07     2.04962E+09
     3.08612E+01     1.47941E+00     3.14159E+00     3.02575E-20     9.54941E-02     6.19889E+07    -2.41202E+07     2.03074E+09
     3.08612E+01     1.48507E+00     3.14159E+00     4.26508E-20     9.62934E-02     3.81929E+07    -1.94542E+07     2.00998E+09
     3.08612E+01     1.49038E+00     3.14159E+00     7.21567E-20     9.73735E-02     2.42267E+07    -1.44119E+07     1.99237E+09
     3.08612E+01     1.49537E+00     3.14159E+00     1.36460E-19     9.91037E-02     1.89483E+07    -9.38250E+06     1.97982E+09
     3.08612E+01     1.50004E+00     3.14159E+00     2.87841E-19     1.02251E-01     1.45468E+07    -4.88878E+06     1.97113E+09
     3.08612E+01     1.50442E+00     3.14159E+00     6.21647E-19     1.08328E-01     6.05462E+06    -7.56915E+05     1.96546E+09
     3.08612E+01     1.50854E+00     3.14159E+00     1.23238E-18     1.19504E-01    -5.16551E+06     2.29821E+06     1.96089E+09
     3.08612E+01     1.51240E+00     3.14159E+00     2.26036E-18     1.38419E-01    -8.03272E+06     3.36672E+06     1.95634E+09
     3.08612E+01     1.51602E+00     3.14159E+00     4.36644E-18     1.70866E-01    -3.01849E+06     2.49187E+06     1.95214E+09
     3.08612E+01     1.51941E+00     3.14159E+00     8.19751E-18     2.26990E-01     5.84458E+04     1.20092E+06     1.94870E+09
     3.08612E+01     1.52260E+00     3.14159E+00     1.47124E-17     3.20398E-01    -3.85590E+05     8.37179E+05     1.94552E+09
     3.08612E+01     1.52558E+00     3.14159E+00     2.52739E-17     4.68935E-01    -2.26738E+06     1.02398E+06     1.94251E+09
     3.08612E+01     1.52839E+00     3.14159E+00     4.20436E-17     6.96729E-01    -2.97457E+06     1.17806E+06     1.93956E+09
     3.08612E+01     1.53102E+00     3.14159E+00     6.89294E-17     1.03913E+00    -2.62277E+06     1.12298E+06     1.93682E+09
     3.08612E+01     1.53348E+00     3.14159E+00     1.11706E-16     1.54843E+00    -2.05927E+06     8.91823E+05     1.93458E+09
     3.08612E+01     1.53580E+00     3.14159E+00     1.77040E-16     2.29337E+00    -1.51867E+06     6.18633E+05     1.93279E+09
     3.08612E+01     1.53797E+00     3.14159E+00     2.73993E-16     3.35982E+00    -1.01221E+06     4.00942E+05     1.93131E+09
     3.08612E+01     1.54000E+00     3.14159E+00     4.15375E-16     4.85549E+00    -6.90494E+05     2.50291E+05     1.93004E+09
     3.08612E+01     1.54191E+00     3.14159E+00     6.17020E-16     6.91403E+00    -4.61653E+05     1.51597E+05     1.92895E+09
     3.08612E+01     1.54371E+00     3.14159E+00     8.97698E-16     9.68975E+00    -2.73160E+05     7.39904E+04     1.92800E+09
     3.08612E+01     1.54539E+00     3.14159E+00     1.27462E-15     1.33550E+01    -2.01372E+05     1.66406E+04     1.92720E+09
     3.08612E+01     1.54696E+00     3.14159E+00     1.77507E-15     1.80933E+01    -2.41641E+05     1.50351E+03     1.92650E+09
     3.08612E+01     1.54844E+00     3.14159E+00     2.42735E-15     2.41128E+01    -9.37131E+04     2.04893E+04     1.92587E+09
     3.08612E+01     1.54983E+00     3.14159E+00     3.24258E-15     3.16051E+01     1.23765E+05     2.78009E+04     1.92535E+09
     3.08612E+01     1.55113E+00     3.14159E+00     4.23972E-15     4.07362E+01     5.14267E+05    -3.61625E+03     1.92490E+09
     3.08612E+01     1.55235E+00     3.14159E+00     5.44313E-15     5.16569E+01     1.01170E+06    -5.16911E+04     1.92449E+09
     3.08612E+01     1.55350E+00     3.14159E+00     6.89167E-15     6.45220E+01     1.14212E+06    -9.03820E+04     1.92405E+09