 TITLE= "ZEUSMP/2 FIELD DATA AT TIME:    11.9783249591948      yr "
 VARIABLES= "X","Y","Z","rho","e","V1","V2","V3"
 ZONE I=  100 , J=  160 , K=    1 , F=POINT
     3.02838E+01     4.86288E-02     3.14159E+00     1.37765E-20     1.94169E-02    -4.67377E+09    -2.77607E+08     5.97865E+04
     3.02838E+01     1.42876E-01     3.14159E+00     1.74129E-20     2.33123E-02    -4.69458E+09    -5.83707E+08     2.77166E+05
     3.02838E+01     2.31287E-01     3.14159E+00     1.73120E-20     2.07539E-02    -4.77566E+09    -5.08652E+08     1.74931E+06
     3.02838E+01     3.14225E-01     3.14159E+00     1.95417E-20     2.32493E-02    -4.79199E+09    -3.98057E+08     1.03179E+07
     3.02838E+01     3.92028E-01     3.14159E+00     2.20177E-20     2.68924E-02    -4.80351E+09    -2.43830E+08     4.20644E+07
     3.02838E+01     4.65013E-01     3.14159E+00     1.59855E-20     1.55363E-02    -4.88607E+09     1.04583E+08     1.08660E+08
     3.02838E+01     5.33480E-01     3.14159E+00     1.39851E-20     1.28253E-02    -4.86934E+09     4.78850E+08     2.02235E+08
     3.02838E+01     5.97708E-01     3.14159E+00     1.19018E-20     1.01320E-02    -4.82805E+09     7.96139E+08     3.13130E+08
     3.02838E+01     6.57959E-01     3.14159E+00     1.01806E-20     8.10735E-03    -4.76125E+09     1.07189E+09     4.30591E+08
     3.02838E+01     7.14480E-01     3.14159E+00     8.94228E-21     7.11023E-03    -4.66255E+09     1.31644E+09     5.44314E+08
     3.02838E+01     7.67502E-01     3.14159E+00     8.04556E-21     6.44854E-03    -4.54505E+09     1.51536E+09     6.56101E+08
     3.02838E+01     8.17240E-01     3.14159E+00     7.87282E-21     6.39447E-03    -4.41039E+09     1.67495E+09     7.75721E+08
     3.02838E+01     8.63899E-01     3.14159E+00     8.05841E-21     6.79995E-03    -4.24980E+09     1.79669E+09     9.07137E+08
     3.02838E+01     9.07670E-01     3.14159E+00     8.52387E-21     7.69503E-03    -4.04969E+09     1.85431E+09     1.05314E+09
     3.02838E+01     9.48730E-01     3.14159E+00     9.08306E-21     8.88139E-03    -3.80175E+09     1.85663E+09     1.21439E+09
     3.02838E+01     9.87248E-01     3.14159E+00     9.76171E-21     1.04987E-02    -3.50144E+09     1.82085E+09     1.38957E+09
     3.02838E+01     1.02338E+00     3.14159E+00     1.05893E-20     1.27618E-02    -3.14881E+09     1.74052E+09     1.57171E+09
     3.02838E+01     1.05728E+00     3.14159E+00     1.15279E-20     1.57420E-02    -2.75632E+09     1.62039E+09     1.74716E+09
     3.02838E+01     1.08908E+00     3.14159E+00     1.25714E-20     1.95187E-02    -2.34760E+09     1.47088E+09     1.89952E+09
     3.02838E+01     1.11890E+00     3.14159E+00     1.38191E-20     2.43383E-02    -1.94744E+09     1.29199E+09     2.01459E+09
     3.02838E+01     1.14689E+00     3.14159E+00     1.54645E-20     3.11319E-02    -1.55236E+09     1.09150E+09     2.08911E+09
     3.02838E+01     1.17314E+00     3.14159E+00     1.72830E-20     3.93532E-02    -1.15198E+09     9.24698E+08     2.12474E+09
     3.02838E+01     1.19776E+00     3.14159E+00     1.81152E-20     4.42092E-02    -8.14977E+08     8.45648E+08     2.13095E+09
     3.02838E+01     1.22086E+00     3.14159E+00     1.82591E-20     4.65220E-02    -5.61556E+08     8.25158E+08     2.12825E+09
     3.02838E+01     1.24253E+00     3.14159E+00     1.84183E-20     4.86281E-02    -3.73334E+08     8.12395E+08     2.12261E+09
     3.02838E+01     1.26286E+00     3.14159E+00     1.86893E-20     5.09721E-02    -2.36604E+08     7.94836E+08     2.11507E+09
     3.02838E+01     1.28193E+00     3.14159E+00     1.90643E-20     5.35497E-02    -1.46748E+08     7.73175E+08     2.10662E+09
     3.02838E+01     1.29982E+00     3.14159E+00     1.94840E-20     5.62347E-02    -9.12861E+07     7.50464E+08     2.09815E+09
     3.02838E+01     1.31660E+00     3.14159E+00     1.99229E-20     5.89115E-02    -5.35436E+07     7.28489E+08     2.08978E+09
     3.02838E+01     1.33234E+00     3.14159E+00     2.03900E-20     6.15225E-02    -2.44097E+07     7.07643E+08     2.08196E+09
     3.02838E+01     1.34711E+00     3.14159E+00     2.08724E-20     6.40651E-02    -6.46715E+06     6.88121E+08     2.07470E+09
     3.02838E+01     1.36096E+00     3.14159E+00     2.13188E-20     6.64161E-02    -1.01657E+07     6.70822E+08     2.06836E+09
     3.02838E+01     1.37396E+00     3.14159E+00     2.17062E-20     6.84805E-02    -8.32818E+06     6.56342E+08     2.06275E+09
     3.02838E+01     1.38615E+00     3.14159E+00     2.20440E-20     7.03073E-02    -1.17171E+07     6.44340E+08     2.05782E+09
     3.02838E+01     1.39758E+00     3.14159E+00     2.23201E-20     7.18443E-02    -2.44675E+07     6.34683E+08     2.05371E+09
     3.02838E+01     1.40831E+00     3.14159E+00     2.25498E-20     7.31785E-02    -2.20879E+07     6.26701E+08     2.05025E+09
     3.02838E+01     1.41837E+00     3.14159E+00     2.27938E-20     7.45587E-02     5.28256E+06     6.16033E+08     2.04694E+09
     3.02838E+01     1.42781E+00     3.14159E+00     2.30416E-20     7.59621E-02     3.55825E+07     5.87309E+08     2.04327E+09
     3.02838E+01     1.43667E+00     3.14159E+00     2.33838E-20     7.79210E-02     6.66489E+07     5.29356E+08     2.03900E+09
     3.02838E+01     1.44498E+00     3.14159E+00     2.37635E-20     8.01512E-02     8.82632E+07     4.50230E+08     2.03407E+09
     3.02838E+01     1.45277E+00     3.14159E+00     2.41141E-20     8.22849E-02     9.87527E+07     3.63541E+08     2.02848E+09
     3.02838E+01     1.46008E+00     3.14159E+00     2.44098E-20     8.41510E-02     9.65286E+07     2.80584E+08     2.02239E+09
     3.02838E+01     1.46694E+00     3.14159E+00     2.46275E-20     8.56058E-02     9.09647E+07     2.07209E+08     2.01566E+09
     3.02838E+01     1.47338E+00     3.14159E+00     2.47780E-20     8.67191E-02     8.51793E+07     1.43466E+08     2.00767E+09
     3.02838E+01     1.47941E+00     3.14159E+00     2.48918E-20     8.76064E-02     7.36589E+07     8.99478E+07     1.99723E+09
     3.02838E+01     1.48507E+00     3.14159E+00     2.49929E-20     8.83128E-02     5.41768E+07     4.96343E+07     1.98308E+09
     3.02838E+01     1.49038E+00     3.14159E+00     2.49620E-20     8.88652E-02     3.05750E+07     2.44960E+07     1.96588E+09
     3.02838E+01     1.49537E+00     3.14159E+00     2.49472E-20     8.93051E-02     1.37135E+07     1.21053E+07     1.95305E+09
     3.02838E+01     1.50004E+00     3.14159E+00     2.68901E-20     8.96991E-02     7.19342E+06     6.59830E+06     1.95961E+09
     3.02838E+01     1.50442E+00     3.14159E+00     4.12410E-20     9.01668E-02     4.06556E+06     3.84093E+06     1.97513E+09
     3.02838E+01     1.50854E+00     3.14159E+00     7.91057E-20     9.09166E-02     7.12600E+05     2.76970E+06     1.97227E+09
     3.02838E+01     1.51240E+00     3.14159E+00     1.75037E-19     9.23502E-02    -3.19958E+06     2.56617E+06     1.97533E+09
     3.02838E+01     1.51602E+00     3.14159E+00     4.37242E-19     9.55028E-02     1.21787E+04     2.46322E+06     1.98064E+09
     3.02838E+01     1.51941E+00     3.14159E+00     9.55427E-19     1.02030E-01     1.35533E+06     2.07382E+06     1.98170E+09
     3.02838E+01     1.52260E+00     3.14159E+00     1.60492E-18     1.12958E-01     1.89656E+05     1.65904E+06     1.98059E+09
     3.02838E+01     1.52558E+00     3.14159E+00     2.46933E-18     1.28760E-01    -1.14929E+06     1.60993E+06     1.97922E+09
     3.02838E+01     1.52839E+00     3.14159E+00     3.98456E-18     1.51520E-01    -2.24292E+05     1.63278E+06     1.97736E+09
     3.02838E+01     1.53102E+00     3.14159E+00     6.94467E-18     1.86655E-01     7.48704E+05     1.52331E+06     1.97476E+09
     3.02838E+01     1.53348E+00     3.14159E+00     1.13173E-17     2.40337E-01     5.30501E+05     1.32967E+06     1.97242E+09
     3.02838E+01     1.53580E+00     3.14159E+00     1.85073E-17     3.20581E-01     7.37894E+05     1.15694E+06     1.97123E+09
     3.02838E+01     1.53797E+00     3.14159E+00     3.15045E-17     4.43782E-01     1.14413E+06     9.52986E+05     1.97027E+09
     3.02838E+01     1.54000E+00     3.14159E+00     5.26948E-17     6.34024E-01     1.39594E+06     7.20941E+05     1.96913E+09
     3.02838E+01     1.54191E+00     3.14159E+00     8.29667E-17     9.15625E-01     1.44531E+06     4.86238E+05     1.96783E+09
     3.02838E+01     1.54371E+00     3.14159E+00     1.22626E-16     1.30776E+00     1.32306E+06     2.88808E+05     1.96672E+09
     3.02838E+01     1.54539E+00     3.14159E+00     1.73746E-16     1.82784E+00     1.19578E+06     1.50249E+05     1.96589E+09
     3.02838E+01     1.54696E+00     3.14159E+00     2.41569E-16     2.49855E+00     1.14092E+06     5.38638E+04     1.96515E+09
     3.02838E+01     1.54844E+00     3.14159E+00     3.26970E-16     3.34487E+00     1.10122E+06    -1.51608E+04     1.96450E+09
     3.02838E+01     1.54983E+00     3.14159E+00     4.31439E-16     4.38582E+00     1.02563E+06    -7.04277E+04     1.96409E+09
     3.02838E+01     1.55113E+00     3.14159E+00     5.58994E-16     5.64069E+00     8.49664E+05    -1.12910E+05     1.96359E+09
     3.02838E+01     1.55235E+00     3.14159E+00     7.13528E-16     7.13039E+00     3.11064E+05    -1.12042E+05     1.96301E+09
     3.02838E+01     1.55350E+00     3.14159E+00     9.31319E-16     8.91089E+00    -4.90387E+05    -3.73170E+04     1.96245E+09
     3.02838E+01     1.55457E+00     3.14159E+00     1.23570E-15     1.10819E+01    -8.54289E+05     8.52312E+04     1.96202E+09
     3.02838E+01     1.55558E+00     3.14159E+00     1.56831E-15     1.36836E+01    -2.67799E+04     1.55715E+05     1.96165E+09
     3.02838E+01     1.55653E+00     3.14159E+00     1.91399E-15     1.66796E+01     5.89431E+05     1.39022E+05     1.96108E+09
     3.02838E+01     1.55742E+00     3.14159E+00     2.28004E-15     2.00258E+01     8.63747E+05     8.26464E+04     1.96042E+09
     3.02838E+01     1.55825E+00     3.14159E+00     2.66965E-15     2.36899E+01     7.86706E+05     2.36319E+04     1.95995E+09
     3.02838E+01     1.55903E+00     3.14159E+00     3.09447E-15     2.76489E+01     5.54687E+05    -1.32037E+04     1.95968E+09
     3.02838E+01     1.55976E+00     3.14159E+00     3.58581E-15     3.19098E+01     2.07243E+05    -2.23531E+04     1.95947E+09
     3.02838E+01     1.56045E+00     3.14159E+00     4.18296E-15     3.65152E+01    -2.73987E+05    -2.76127E+03     1.95934E+09
     3.02838E+01     1.56109E+00     3.14159E+00     4.85424E-15     4.14955E+01    -4.28347E+05     3.42819E+04     1.95943E+09
     3.02838E+01     1.56170E+00     3.14159E+00     5.54086E-15     4.68250E+01    -3.67893E+05     6.81879E+04     1.95962E+09
     3.02838E+01     1.56226E+00     3.14159E+00     6.26919E-15     5.24596E+01    -6.25345E+05     1.01667E+05     1.95956E+09
     3.02838E+01     1.56280E+00     3.14159E+00     7.07781E-15     5.83893E+01    -8.95564E+05     1.44160E+05     1.95976E+09
     3.02838E+01     1.56330E+00     3.14159E+00     7.99541E-15     6.46276E+01    -9.88138E+05     1.89203E+05     1.96002E+09
     3.02838E+01     1.56376E+00     3.14159E+00     8.86880E-15     7.11313E+01    -7.51082E+05     2.24166E+05     1.95958E+09
     3.02838E+01     1.56420E+00     3.14159E+00     9.94508E-15     7.78952E+01    -1.23305E+06     2.59484E+05     1.95895E+09
     3.02838E+01     1.56461E+00     3.14159E+00     1.11048E-14     8.49512E+01    -1.47207E+06     3.05324E+05     1.95838E+09
     3.02838E+01     1.56500E+00     3.14159E+00     1.22246E-14     9.22459E+01    -1.67439E+06     3.53612E+05     1.95793E+09
     3.02838E+01     1.56536E+00     3.14159E+00     1.33175E-14     9.96980E+01    -1.97892E+06     4.04382E+05     1.95766E+09
     3.02838E+01     1.56570E+00     3.14159E+00     1.44874E-14     1.07270E+02    -2.21905E+06     4.57166E+05     1.95741E+09
     3.02838E+01     1.56602E+00     3.14159E+00     1.57428E-14     1.14957E+02    -2.35487E+06     5.08874E+05     1.95702E+09
     3.02838E+01     1.56632E+00     3.14159E+00     1.70923E-14     1.22754E+02    -2.22006E+06     5.54725E+05     1.95656E+09
     3.02838E+01     1.56660E+00     3.14159E+00     1.85001E-14     1.30650E+02    -1.50287E+06     5.84544E+05     1.95612E+09
     3.02838E+01     1.56687E+00     3.14159E+00     1.99486E-14     1.38621E+02    -5.44440E+05     5.90226E+05     1.95569E+09
     3.02838E+01     1.56711E+00     3.14159E+00     2.12886E-14     1.46615E+02     3.87955E+05     5.72723E+05     1.95518E+09
     3.02838E+01     1.56734E+00     3.14159E+00     2.26324E-14     1.54575E+02     9.20187E+05     5.39668E+05     1.95456E+09
     3.02838E+01     1.56756E+00     3.14159E+00     2.39460E-14     1.62469E+02     1.31949E+06     4.98893E+05     1.95387E+09
     3.02838E+01     1.56777E+00     3.14159E+00     2.52498E-14     1.70265E+02     1.59072E+06     4.54524E+05     1.95307E+09
     3.02838E+01     1.56796E+00     3.14159E+00     2.66519E-14     1.77958E+02     1.55658E+06     4.11715E+05     1.95214E+09
     3.02838E+01     1.56814E+00     3.14159E+00     2.82883E-14     1.85576E+02     9.57647E+05     3.78889E+05     1.95117E+09
     3.02838E+01     1.56831E+00     3.14159E+00     3.01321E-14     1.93153E+02    -2.78318E+05     3.65116E+05     1.95034E+09
     3.02838E+01     1.56846E+00     3.14159E+00     3.21246E-14     2.00707E+02    -1.86989E+06     3.74064E+05     1.94966E+09
     3.02838E+01     1.56861E+00     3.14159E+00     3.42088E-14     2.08237E+02    -2.65267E+06     3.98489E+05     1.94915E+09
     3.02838E+01     1.56875E+00     3.14159E+00     3.62568E-14     2.15724E+02    -2.84932E+06     4.27356E+05     1.94887E+09
     3.02838E+01     1.56888E+00     3.14159E+00     3.82053E-14     2.23131E+02    -2.56763E+06     4.53603E+05     1.94873E+09
     3.02838E+01     1.56900E+00     3.14159E+00     4.00533E-14     2.30422E+02    -1.92215E+06     4.72587E+05     1.94856E+09
     3.02838E+01     1.56912E+00     3.14159E+00     4.17878E-14     2.37563E+02    -1.04461E+06     4.81921E+05     1.94825E+09
     3.02838E+01     1.56923E+00     3.14159E+00     4.34682E-14     2.44533E+02    -1.84051E+05     4.81648E+05     1.94778E+09
     3.02838E+01     1.56933E+00     3.14159E+00     4.52124E-14     2.51325E+02     3.09710E+05     4.74610E+05     1.94717E+09
     3.02838E+01     1.56942E+00     3.14159E+00     4.71324E-14     2.57950E+02     7.20753E+05     4.63617E+05     1.94648E+09
     3.02838E+01     1.56951E+00     3.14159E+00     4.92435E-14     2.64428E+02     1.19244E+06     4.49274E+05     1.94578E+09
     3.02838E+01     1.56959E+00     3.14159E+00     5.15583E-14     2.70777E+02     1.76789E+06     4.31323E+05     1.94510E+09
     3.02838E+01     1.56967E+00     3.14159E+00     5.41172E-14     2.77014E+02     2.41321E+06     4.09573E+05     1.94442E+09
     3.02838E+01     1.56975E+00     3.14159E+00     5.69749E-14     2.83158E+02     3.08400E+06     3.84225E+05     1.94370E+09
     3.02838E+01     1.56981E+00     3.14159E+00     6.01606E-14     2.89229E+02     3.74044E+06     3.55812E+05     1.94292E+09
     3.02838E+01     1.56988E+00     3.14159E+00     6.36574E-14     2.95244E+02     4.36778E+06     3.24989E+05     1.94206E+09
     3.02838E+01     1.56994E+00     3.14159E+00     6.74186E-14     3.01211E+02     4.96993E+06     2.92372E+05     1.94108E+09
     3.02838E+01     1.57000E+00     3.14159E+00     7.14078E-14     3.07135E+02     5.53830E+06     2.58516E+05     1.93998E+09
     3.02838E+01     1.57005E+00     3.14159E+00     7.56253E-14     3.13016E+02     6.04491E+06     2.24001E+05     1.93871E+09
     3.02838E+01     1.57010E+00     3.14159E+00     8.01066E-14     3.18855E+02     6.44240E+06     1.89520E+05     1.93726E+09
     3.02838E+01     1.57015E+00     3.14159E+00     8.49086E-14     3.24655E+02     6.65587E+06     1.55953E+05     1.93560E+09
     3.02838E+01     1.57019E+00     3.14159E+00     9.01125E-14     3.30421E+02     6.60467E+06     1.24389E+05     1.93377E+09
     3.02838E+01     1.57023E+00     3.14159E+00     9.58605E-14     3.36164E+02     6.26849E+06     9.59339E+04     1.93182E+09
     3.02838E+01     1.57027E+00     3.14159E+00     1.02407E-13     3.41905E+02     5.71867E+06     7.13647E+04     1.92981E+09
     3.02838E+01     1.57031E+00     3.14159E+00     1.10062E-13     3.47673E+02     5.06702E+06     5.09148E+04     1.92780E+09
     3.02838E+01     1.57034E+00     3.14159E+00     1.18882E-13     3.53500E+02     4.35839E+06     3.44363E+04     1.92581E+09
     3.02838E+01     1.57037E+00     3.14159E+00     1.28448E-13     3.59402E+02     3.63782E+06     2.16125E+04     1.92390E+09
     3.02838E+01     1.57040E+00     3.14159E+00     1.38237E-13     3.65368E+02     2.93504E+06     1.20238E+04     1.92209E+09
     3.02838E+01     1.57043E+00     3.14159E+00     1.48222E-13     3.71378E+02     2.25266E+06     5.23734E+03     1.92050E+09
     3.02838E+01     1.57046E+00     3.14159E+00     1.58403E-13     3.77410E+02     1.59180E+06     8.60773E+02     1.91928E+09
     3.02838E+01     1.57048E+00     3.14159E+00     1.68121E-13     3.83433E+02     9.71544E+05    -1.48417E+03     1.91855E+09
     3.02838E+01     1.57051E+00     3.14159E+00     1.76457E-13     3.89393E+02     6.07624E+05    -2.41884E+03     1.91817E+09
     3.02838E+01     1.57053E+00     3.14159E+00     1.83472E-13     3.95231E+02     3.89169E+05    -2.60278E+03     1.91779E+09
     3.02838E+01     1.57055E+00     3.14159E+00     1.92875E-13     4.00956E+02     4.48876E+05    -2.59844E+03     1.91739E+09
     3.02838E+01     1.57057E+00     3.14159E+00     2.05475E-13     4.06639E+02     5.04244E+05    -2.72331E+03     1.91697E+09
     3.02838E+01     1.57058E+00     3.14159E+00     2.20796E-13     4.12342E+02     3.05634E+05    -2.71322E+03     1.91634E+09
     3.02838E+01     1.57060E+00     3.14159E+00     2.42373E-13     4.18154E+02     2.48230E+05    -2.46777E+03     1.91556E+09
     3.02838E+01     1.57062E+00     3.14159E+00     2.69623E-13     4.24178E+02     3.29270E+05    -2.25932E+03     1.91496E+09
     3.02838E+01     1.57063E+00     3.14159E+00     2.99120E-13     4.30455E+02     2.86194E+05    -2.10206E+03     1.91449E+09
     3.02838E+01     1.57065E+00     3.14159E+00     3.29194E-13     4.36959E+02     3.00548E+04    -1.73603E+03     1.91410E+09
     3.02838E+01     1.57066E+00     3.14159E+00     3.55492E-13     4.43606E+02    -2.11100E+05    -9.97686E+02     1.91381E+09
     3.02838E+01     1.57067E+00     3.14159E+00     3.76146E-13     4.50268E+02     4.43106E+04    -3.11904E+02     1.91339E+09
     3.02838E+01     1.57068E+00     3.14159E+00     3.94966E-13     4.56854E+02     3.40747E+05    -6.87489E+01     1.91284E+09
     3.02838E+01     1.57069E+00     3.14159E+00     4.13502E-13     4.63330E+02     6.60225E+05    -2.08397E+02     1.91214E+09
     3.02838E+01     1.57070E+00     3.14159E+00     4.27980E-13     4.69652E+02     9.13633E+05    -6.55190E+02     1.91120E+09
     3.02838E+01     1.57071E+00     3.14159E+00     4.37400E-13     4.75750E+02     9.34837E+05    -1.22138E+03     1.90994E+09
     3.02838E+01     1.57072E+00     3.14159E+00     4.35612E-13     4.81520E+02     6.81333E+05    -1.64053E+03     1.90824E+09
     3.02838E+01     1.57073E+00     3.14159E+00     4.21706E-13     4.86835E+02     3.99625E+05    -1.79007E+03     1.90653E+09
     3.02838E+01     1.57074E+00     3.14159E+00     4.48351E-13     4.91894E+02    -5.10481E+05    -1.32573E+03     1.90784E+09
     3.02838E+01     1.57075E+00     3.14159E+00     4.86557E-13     4.96994E+02    -4.24511E+05    -4.57300E+02     1.90857E+09
     3.02838E+01     1.57075E+00     3.14159E+00     5.37584E-13     5.02233E+02    -1.79912E+05     1.63301E+02     1.90939E+09
     3.02838E+01     1.57076E+00     3.14159E+00     5.80621E-13     5.07599E+02    -5.62347E+05     8.03363E+02     1.90856E+09
     3.02838E+01     1.57077E+00     3.14159E+00     6.06592E-13     5.12943E+02    -3.21225E+05     1.47819E+03     1.90560E+09
     3.02838E+01     1.57077E+00     3.14159E+00     6.93050E-13     5.18431E+02     2.61194E+05     1.76073E+03     1.90571E+09
     3.02838E+01     1.57078E+00     3.14159E+00     7.80447E-13     5.24267E+02     3.90749E+05     1.75869E+03     1.90534E+09
     3.02838E+01     1.57078E+00     3.14159E+00     8.71733E-13     5.30405E+02     7.38445E+05     1.62667E+03     1.90375E+09
     3.02838E+01     1.57079E+00     3.14159E+00     1.58312E-12     5.38959E+02     2.29812E+06     1.05832E+03     1.90052E+09
     3.02838E+01     1.57079E+00     3.14159E+00     1.18323E-10     9.30910E+02     2.42339E+06     1.09620E+02     1.91907E+09
     3.02838E+01     1.57079E+00     3.14159E+00     6.23695E-10     3.20611E+03     8.69962E+02    -2.71249E+02     1.92597E+09
     3.02838E+01     1.57080E+00     3.14159E+00     9.99999E-10     7.87619E+03     1.64525E+03    -8.05699E+01     1.92606E+09
     3.08612E+01     4.86288E-02     3.14159E+00     1.17649E-20     1.47946E-02    -4.67276E+09    -2.80071E+08     4.59206E+04
     3.08612E+01     1.42876E-01     3.14159E+00     1.59824E-20     2.02992E-02    -4.66887E+09    -5.86730E+08     2.39985E+05
     3.08612E+01     2.31287E-01     3.14159E+00     1.64467E-20     1.90827E-02    -4.74332E+09    -5.02649E+08     1.56352E+06
     3.08612E+01     3.14225E-01     3.14159E+00     1.83396E-20     2.09466E-02    -4.76187E+09    -3.83518E+08     9.40161E+06
     3.08612E+01     3.92028E-01     3.14159E+00     2.13366E-20     2.55137E-02    -4.76800E+09    -2.51922E+08     4.00750E+07
     3.08612E+01     4.65013E-01     3.14159E+00     1.57087E-20     1.50978E-02    -4.84813E+09     8.20534E+07     1.06499E+08
     3.08612E+01     5.33480E-01     3.14159E+00     1.36856E-20     1.23916E-02    -4.83190E+09     4.63505E+08     2.01859E+08
     3.08612E+01     5.97708E-01     3.14159E+00     1.15515E-20     9.65999E-03    -4.79117E+09     7.76481E+08     3.15263E+08
     3.08612E+01     6.57959E-01     3.14159E+00     9.86237E-21     7.75518E-03    -4.72337E+09     1.05074E+09     4.34882E+08
     3.08612E+01     7.14480E-01     3.14159E+00     8.64847E-21     6.80980E-03    -4.62309E+09     1.29228E+09     5.50345E+08
     3.08612E+01     7.67502E-01     3.14159E+00     7.81246E-21     6.20100E-03    -4.50426E+09     1.48541E+09     6.65461E+08
     3.08612E+01     8.17240E-01     3.14159E+00     7.73376E-21     6.22599E-03    -4.36694E+09     1.64025E+09     7.89987E+08
     3.08612E+01     8.63899E-01     3.14159E+00     7.94683E-21     6.67436E-03    -4.20135E+09     1.74994E+09     9.27990E+08
     3.08612E+01     9.07670E-01     3.14159E+00     8.40524E-21     7.56674E-03    -3.99324E+09     1.79010E+09     1.08189E+09
     3.08612E+01     9.48730E-01     3.14159E+00     8.93577E-21     8.72419E-03    -3.73463E+09     1.77824E+09     1.25239E+09
     3.08612E+01     9.87248E-01     3.14159E+00     9.58353E-21     1.03801E-02    -3.42073E+09     1.72513E+09     1.43673E+09
     3.08612E+01     1.02338E+00     3.14159E+00     1.03484E-20     1.26462E-02    -3.05416E+09     1.62305E+09     1.62459E+09
     3.08612E+01     1.05728E+00     3.14159E+00     1.11870E-20     1.54900E-02    -2.65227E+09     1.48391E+09     1.79819E+09
     3.08612E+01     1.08908E+00     3.14159E+00     1.20896E-20     1.87482E-02    -2.24524E+09     1.32362E+09     1.93841E+09
     3.08612E+01     1.11890E+00     3.14159E+00     1.31053E-20     2.27927E-02    -1.85918E+09     1.14890E+09     2.03257E+09
     3.08612E+01     1.14689E+00     3.14159E+00     1.44736E-20     2.84903E-02    -1.49096E+09     9.61050E+08     2.08999E+09
     3.08612E+01     1.17314E+00     3.14159E+00     1.60491E-20     3.59706E-02    -1.12165E+09     7.86117E+08     2.09507E+09
     3.08612E+01     1.19776E+00     3.14159E+00     1.70703E-20     4.20393E-02    -7.91504E+08     6.63940E+08     2.09360E+09
     3.08612E+01     1.22086E+00     3.14159E+00     1.73526E-20     4.55467E-02    -5.34075E+08     5.85247E+08     2.09036E+09
     3.08612E+01     1.24253E+00     3.14159E+00     1.75330E-20     4.84362E-02    -3.39323E+08     5.11195E+08     2.08501E+09
     3.08612E+01     1.26286E+00     3.14159E+00     1.78213E-20     5.14003E-02    -1.95133E+08     4.25075E+08     2.07766E+09
     3.08612E+01     1.28193E+00     3.14159E+00     1.81384E-20     5.44886E-02    -1.01763E+08     3.31079E+08     2.06858E+09
     3.08612E+01     1.29982E+00     3.14159E+00     1.86085E-20     5.74655E-02    -4.48334E+07     2.38090E+08     2.05892E+09
     3.08612E+01     1.31660E+00     3.14159E+00     1.89417E-20     6.01966E-02     3.89957E+06     1.41480E+08     2.04826E+09
     3.08612E+01     1.33234E+00     3.14159E+00     1.96667E-20     6.28994E-02     4.27121E+07     3.56013E+07     2.04375E+09
     3.08612E+01     1.34711E+00     3.14159E+00     2.10802E-20     6.56634E-02     5.04464E+07    -6.19944E+07     2.04156E+09
     3.08612E+01     1.36096E+00     3.14159E+00     2.16970E-20     6.81128E-02     1.50562E+07    -1.21701E+08     2.03414E+09
     3.08612E+01     1.37396E+00     3.14159E+00     2.20544E-20     7.00524E-02    -1.49354E+07    -1.33206E+08     2.02747E+09
     3.08612E+01     1.38615E+00     3.14159E+00     2.22187E-20     7.16460E-02    -4.08232E+07    -1.08840E+08     2.02163E+09
     3.08612E+01     1.39758E+00     3.14159E+00     2.22229E-20     7.28756E-02    -6.49491E+07    -6.55626E+07     2.01684E+09
     3.08612E+01     1.40831E+00     3.14159E+00     2.21661E-20     7.36710E-02    -7.08280E+07    -1.39787E+07     2.01348E+09
     3.08612E+01     1.41837E+00     3.14159E+00     2.22184E-20     7.42875E-02    -3.23333E+07     3.53019E+07     2.01229E+09
     3.08612E+01     1.42781E+00     3.14159E+00     2.25554E-20     7.55901E-02     5.34759E+07     6.47869E+07     2.01465E+09
     3.08612E+01     1.43667E+00     3.14159E+00     2.30884E-20     7.76764E-02     1.37922E+08     6.82439E+07     2.01470E+09
     3.08612E+01     1.44498E+00     3.14159E+00     2.36439E-20     8.01051E-02     1.96621E+08     5.36432E+07     2.01236E+09
     3.08612E+01     1.45277E+00     3.14159E+00     2.40994E-20     8.24737E-02     2.24623E+08     3.02093E+07     2.00719E+09
     3.08612E+01     1.46008E+00     3.14159E+00     2.44114E-20     8.44753E-02     2.25384E+08     3.67280E+06     2.00011E+09
     3.08612E+01     1.46694E+00     3.14159E+00     2.46320E-20     8.60684E-02     2.03266E+08    -1.89053E+07     1.99108E+09
     3.08612E+01     1.47338E+00     3.14159E+00     2.48450E-20     8.72640E-02     1.73209E+08    -2.99030E+07     1.97870E+09
     3.08612E+01     1.47941E+00     3.14159E+00     2.52576E-20     8.81355E-02     1.34900E+08    -2.92304E+07     1.96328E+09
     3.08612E+01     1.48507E+00     3.14159E+00     2.81476E-20     8.88060E-02     9.02214E+07    -2.20738E+07     1.94844E+09
     3.08612E+01     1.49038E+00     3.14159E+00     4.44588E-20     8.94972E-02     4.87888E+07    -1.44013E+07     1.94139E+09
     3.08612E+01     1.49537E+00     3.14159E+00     1.07610E-19     9.07201E-02     2.17927E+07    -9.02194E+06     1.94675E+09
     3.08612E+01     1.50004E+00     3.14159E+00     2.68591E-19     9.34291E-02     8.66706E+06    -5.43407E+06     1.95109E+09
     3.08612E+01     1.50442E+00     3.14159E+00     6.07446E-19     9.91471E-02     2.61846E+06    -2.62330E+06     1.95148E+09
     3.08612E+01     1.50854E+00     3.14159E+00     1.34888E-18     1.10726E-01     1.33656E+06    -1.33157E+06     1.95107E+09
     3.08612E+01     1.51240E+00     3.14159E+00     2.77814E-18     1.32930E-01    -7.60606E+05    -1.56138E+06     1.95004E+09
     3.08612E+01     1.51602E+00     3.14159E+00     4.93886E-18     1.70690E-01    -3.24592E+03    -1.64596E+06     1.94870E+09
     3.08612E+01     1.51941E+00     3.14159E+00     8.97725E-18     2.32637E-01     3.79239E+05    -9.08654E+05     1.94603E+09
     3.08612E+01     1.52260E+00     3.14159E+00     1.59522E-17     3.33344E-01    -7.45232E+05    -1.92808E+04     1.94295E+09
     3.08612E+01     1.52558E+00     3.14159E+00     2.81383E-17     4.95497E-01    -1.64125E+05     2.11809E+05     1.94013E+09
     3.08612E+01     1.52839E+00     3.14159E+00     4.87084E-17     7.53200E-01     8.30694E+05    -2.81017E+04     1.93747E+09
     3.08612E+01     1.53102E+00     3.14159E+00     8.39288E-17     1.16020E+00     1.98536E+06    -2.55230E+05     1.93497E+09
     3.08612E+01     1.53348E+00     3.14159E+00     1.41922E-16     1.79463E+00     2.02081E+06    -4.83586E+05     1.93287E+09
     3.08612E+01     1.53580E+00     3.14159E+00     2.28876E-16     2.74913E+00     2.31359E+06    -7.19707E+05     1.93143E+09
     3.08612E+01     1.53797E+00     3.14159E+00     3.54599E-16     4.12656E+00     2.69269E+06    -8.76112E+05     1.93038E+09
     3.08612E+01     1.54000E+00     3.14159E+00     5.33030E-16     6.05071E+00     2.73408E+06    -9.33938E+05     1.92949E+09
     3.08612E+01     1.54191E+00     3.14159E+00     7.83901E-16     8.67265E+00     2.42854E+06    -8.95405E+05     1.92868E+09
     3.08612E+01     1.54371E+00     3.14159E+00     1.13118E-15     1.21799E+01     1.99816E+06    -7.99913E+05     1.92793E+09
     3.08612E+01     1.54539E+00     3.14159E+00     1.59860E-15     1.67823E+01     1.73791E+06    -6.92637E+05     1.92726E+09
     3.08612E+01     1.54696E+00     3.14159E+00     2.20839E-15     2.26926E+01     1.65099E+06    -5.98715E+05     1.92670E+09
     3.08612E+01     1.54844E+00     3.14159E+00     2.98502E-15     3.01236E+01     1.50661E+06    -5.15158E+05     1.92621E+09
     3.08612E+01     1.54983E+00     3.14159E+00     3.95181E-15     3.92850E+01     1.17759E+06    -4.18872E+05     1.92579E+09
     3.08612E+01     1.55113E+00     3.14159E+00     5.15179E-15     5.03877E+01     7.05923E+05    -2.98159E+05     1.92539E+09
     3.08612E+01     1.55235E+00     3.14159E+00     6.62547E-15     6.36642E+01     3.50733E+04    -1.80498E+05     1.92498E+09
     3.08612E+01     1.55350E+00     3.14159E+00     8.36869E-15     7.92957E+01    -3.57522E+05    -1.20617E+05     1.92462E+09