 TITLE= "ZEUSMP/2 FIELD DATA AT TIME:    8.98374384763917      yr "
 VARIABLES= "X","Y","Z","rho","e","V1","V2","V3"
 ZONE I=  100 , J=  160 , K=    1 , F=POINT
     3.02838E+01     4.86288E-02     3.14159E+00     1.52345E-20     2.15482E-02    -4.71471E+09     1.35604E+08     4.07997E+06
     3.02838E+01     1.42876E-01     3.14159E+00     1.22565E-20     1.50646E-02    -4.76718E+09     3.46088E+08     5.02893E+06
     3.02838E+01     2.31287E-01     3.14159E+00     1.07638E-20     1.16994E-02    -4.81107E+09     4.58181E+08     4.36839E+06
     3.02838E+01     3.14225E-01     3.14159E+00     1.19717E-20     1.37141E-02    -4.79057E+09     4.75351E+08     3.75086E+06
     3.02838E+01     3.92028E-01     3.14159E+00     1.45695E-20     1.86198E-02    -4.76136E+09     4.74985E+08     3.86955E+06
     3.02838E+01     4.65013E-01     3.14159E+00     1.61365E-20     2.10600E-02    -4.74365E+09     5.85635E+08     4.76760E+06
     3.02838E+01     5.33480E-01     3.14159E+00     1.58777E-20     2.02976E-02    -4.73097E+09     7.87347E+08     8.30746E+06
     3.02838E+01     5.97708E-01     3.14159E+00     1.52773E-20     1.88953E-02    -4.71167E+09     1.01228E+09     1.83714E+07
     3.02838E+01     6.57959E-01     3.14159E+00     1.47718E-20     1.76552E-02    -4.68053E+09     1.21556E+09     4.02346E+07
     3.02838E+01     7.14480E-01     3.14159E+00     1.44623E-20     1.73322E-02    -4.64213E+09     1.36978E+09     8.15604E+07
     3.02838E+01     7.67502E-01     3.14159E+00     1.41851E-20     1.71585E-02    -4.59695E+09     1.48968E+09     1.52743E+08
     3.02838E+01     8.17240E-01     3.14159E+00     1.37490E-20     1.66153E-02    -4.53406E+09     1.59952E+09     2.62292E+08
     3.02838E+01     8.63899E-01     3.14159E+00     1.30613E-20     1.56355E-02    -4.43819E+09     1.71260E+09     4.10343E+08
     3.02838E+01     9.07670E-01     3.14159E+00     1.22442E-20     1.44486E-02    -4.29954E+09     1.82711E+09     5.88771E+08
     3.02838E+01     9.48730E-01     3.14159E+00     1.16487E-20     1.37773E-02    -4.10765E+09     1.92469E+09     7.87541E+08
     3.02838E+01     9.87248E-01     3.14159E+00     1.13348E-20     1.35796E-02    -3.85985E+09     1.97528E+09     9.97314E+08
     3.02838E+01     1.02338E+00     3.14159E+00     1.12456E-20     1.37881E-02    -3.56337E+09     1.97771E+09     1.21016E+09
     3.02838E+01     1.05728E+00     3.14159E+00     1.13573E-20     1.45587E-02    -3.23146E+09     1.94202E+09     1.41718E+09
     3.02838E+01     1.08908E+00     3.14159E+00     1.16895E-20     1.60888E-02    -2.87741E+09     1.85948E+09     1.60950E+09
     3.02838E+01     1.11890E+00     3.14159E+00     1.22749E-20     1.85289E-02    -2.51352E+09     1.72918E+09     1.77803E+09
     3.02838E+01     1.14689E+00     3.14159E+00     1.31609E-20     2.21482E-02    -2.15065E+09     1.55414E+09     1.91518E+09
     3.02838E+01     1.17314E+00     3.14159E+00     1.44613E-20     2.75731E-02    -1.78810E+09     1.33903E+09     2.01731E+09
     3.02838E+01     1.19776E+00     3.14159E+00     1.61950E-20     3.52466E-02    -1.40776E+09     1.11844E+09     2.08568E+09
     3.02838E+01     1.22086E+00     3.14159E+00     1.76693E-20     4.25297E-02    -1.02305E+09     9.67161E+08     2.12661E+09
     3.02838E+01     1.24253E+00     3.14159E+00     1.79327E-20     4.52204E-02    -7.20697E+08     9.11148E+08     2.14457E+09
     3.02838E+01     1.26286E+00     3.14159E+00     1.79249E-20     4.65086E-02    -4.96368E+08     8.97472E+08     2.14424E+09
     3.02838E+01     1.28193E+00     3.14159E+00     1.80072E-20     4.79034E-02    -3.32447E+08     8.85388E+08     2.14186E+09
     3.02838E+01     1.29982E+00     3.14159E+00     1.81887E-20     4.96364E-02    -2.17431E+08     8.68582E+08     2.13793E+09
     3.02838E+01     1.31660E+00     3.14159E+00     1.84494E-20     5.15899E-02    -1.37903E+08     8.48740E+08     2.13328E+09
     3.02838E+01     1.33234E+00     3.14159E+00     1.87569E-20     5.36278E-02    -8.82871E+07     8.28487E+08     2.12850E+09
     3.02838E+01     1.34711E+00     3.14159E+00     1.90810E-20     5.56327E-02    -6.00590E+07     8.09384E+08     2.12372E+09
     3.02838E+01     1.36096E+00     3.14159E+00     1.93832E-20     5.74794E-02    -5.69765E+07     7.92483E+08     2.11971E+09
     3.02838E+01     1.37396E+00     3.14159E+00     1.96365E-20     5.90431E-02    -6.06682E+07     7.78657E+08     2.11664E+09
     3.02838E+01     1.38615E+00     3.14159E+00     1.98597E-20     6.04046E-02    -6.01139E+07     7.67263E+08     2.11425E+09
     3.02838E+01     1.39758E+00     3.14159E+00     2.00823E-20     6.17099E-02    -4.90514E+07     7.56603E+08     2.11218E+09
     3.02838E+01     1.40831E+00     3.14159E+00     2.03361E-20     6.31017E-02    -1.26323E+07     7.45240E+08     2.10968E+09
     3.02838E+01     1.41837E+00     3.14159E+00     2.06013E-20     6.45124E-02     2.86442E+07     7.17880E+08     2.10645E+09
     3.02838E+01     1.42781E+00     3.14159E+00     2.09815E-20     6.65467E-02     6.72472E+07     6.55225E+08     2.10237E+09
     3.02838E+01     1.43667E+00     3.14159E+00     2.14585E-20     6.91609E-02     9.48047E+07     5.62101E+08     2.09741E+09
     3.02838E+01     1.44498E+00     3.14159E+00     2.19244E-20     7.17837E-02     1.07508E+08     4.57675E+08     2.09159E+09
     3.02838E+01     1.45277E+00     3.14159E+00     2.23255E-20     7.40756E-02     1.04643E+08     3.58458E+08     2.08505E+09
     3.02838E+01     1.46008E+00     3.14159E+00     2.26349E-20     7.58478E-02     9.57948E+07     2.72699E+08     2.07776E+09
     3.02838E+01     1.46694E+00     3.14159E+00     2.28777E-20     7.71908E-02     8.30429E+07     2.02106E+08     2.06967E+09
     3.02838E+01     1.47338E+00     3.14159E+00     2.30605E-20     7.81973E-02     7.04584E+07     1.45822E+08     2.06066E+09
     3.02838E+01     1.47941E+00     3.14159E+00     2.32583E-20     7.89720E-02     5.97807E+07     1.01266E+08     2.04968E+09
     3.02838E+01     1.48507E+00     3.14159E+00     2.34695E-20     7.96052E-02     4.57256E+07     6.73722E+07     2.03613E+09
     3.02838E+01     1.49038E+00     3.14159E+00     2.36060E-20     8.01175E-02     3.33143E+07     4.34464E+07     2.02225E+09
     3.02838E+01     1.49537E+00     3.14159E+00     2.40825E-20     8.05489E-02     2.40477E+07     2.70411E+07     2.01972E+09
     3.02838E+01     1.50004E+00     3.14159E+00     2.91551E-20     8.09648E-02     1.50070E+07     1.64894E+07     2.02133E+09
     3.02838E+01     1.50442E+00     3.14159E+00     5.23474E-20     8.15253E-02     7.45648E+06     1.08236E+07     2.01806E+09
     3.02838E+01     1.50854E+00     3.14159E+00     1.09987E-19     8.25245E-02     1.51332E+06     8.51668E+06     2.00679E+09
     3.02838E+01     1.51240E+00     3.14159E+00     2.17162E-19     8.43348E-02    -3.60189E+06     7.54878E+06     1.99323E+09
     3.02838E+01     1.51602E+00     3.14159E+00     3.32458E-19     8.70942E-02    -5.95793E+06     6.84469E+06     1.98913E+09
     3.02838E+01     1.51941E+00     3.14159E+00     7.52912E-19     9.20498E-02    -1.10076E+07     6.47122E+06     1.98852E+09
     3.02838E+01     1.52260E+00     3.14159E+00     1.72165E-18     1.02364E-01    -1.47680E+07     6.20858E+06     1.98736E+09
     3.02838E+01     1.52558E+00     3.14159E+00     3.46106E-18     1.22168E-01    -1.31343E+07     5.87776E+06     1.98527E+09
     3.02838E+01     1.52839E+00     3.14159E+00     6.27211E-18     1.56258E-01    -1.03737E+07     5.48637E+06     1.98193E+09
     3.02838E+01     1.53102E+00     3.14159E+00     1.02891E-17     2.09401E-01    -8.12814E+06     5.01324E+06     1.97816E+09
     3.02838E+01     1.53348E+00     3.14159E+00     1.57552E-17     2.85822E-01    -6.11750E+06     4.50207E+06     1.97491E+09
     3.02838E+01     1.53580E+00     3.14159E+00     2.33186E-17     3.90809E-01    -4.21287E+06     3.90064E+06     1.97234E+09
     3.02838E+01     1.53797E+00     3.14159E+00     3.42948E-17     5.32775E-01    -2.70253E+06     3.20781E+06     1.97021E+09
     3.02838E+01     1.54000E+00     3.14159E+00     5.03519E-17     7.23795E-01    -1.72445E+06     2.54180E+06     1.96850E+09
     3.02838E+01     1.54191E+00     3.14159E+00     7.29789E-17     9.78499E-01    -1.28282E+06     1.99545E+06     1.96727E+09
     3.02838E+01     1.54371E+00     3.14159E+00     1.03256E-16     1.31288E+00    -1.09788E+06     1.55706E+06     1.96642E+09
     3.02838E+01     1.54539E+00     3.14159E+00     1.42963E-16     1.74356E+00    -9.31236E+05     1.19670E+06     1.96579E+09
     3.02838E+01     1.54696E+00     3.14159E+00     1.94970E-16     2.28841E+00    -7.91079E+05     9.22359E+05     1.96534E+09
     3.02838E+01     1.54844E+00     3.14159E+00     2.64043E-16     2.97027E+00    -7.03365E+05     7.28073E+05     1.96488E+09
     3.02838E+01     1.54983E+00     3.14159E+00     3.58057E-16     3.82289E+00    -5.39774E+05     5.89120E+05     1.96422E+09
     3.02838E+01     1.55113E+00     3.14159E+00     4.79756E-16     4.88283E+00    -7.56825E+04     4.57202E+05     1.96342E+09
     3.02838E+01     1.55235E+00     3.14159E+00     6.31599E-16     6.18164E+00     2.78857E+05     3.13714E+05     1.96265E+09
     3.02838E+01     1.55350E+00     3.14159E+00     8.35510E-16     7.76720E+00     4.03139E+05     1.80851E+05     1.96199E+09
     3.02838E+01     1.55457E+00     3.14159E+00     1.09168E-15     9.69515E+00     3.70303E+05     7.61559E+04     1.96145E+09
     3.02838E+01     1.55558E+00     3.14159E+00     1.39100E-15     1.19956E+01     2.27373E+05     5.52628E+03     1.96122E+09
     3.02838E+01     1.55653E+00     3.14159E+00     1.68237E-15     1.46361E+01     1.60585E+05    -4.03998E+04     1.96070E+09
     3.02838E+01     1.55742E+00     3.14159E+00     1.99382E-15     1.75660E+01     2.13871E+04    -6.67621E+04     1.96016E+09
     3.02838E+01     1.55825E+00     3.14159E+00     2.36140E-15     2.07863E+01     4.51204E+04    -8.15130E+04     1.96004E+09
     3.02838E+01     1.55903E+00     3.14159E+00     2.78552E-15     2.43196E+01     1.44320E+05    -9.67379E+04     1.95992E+09
     3.02838E+01     1.55976E+00     3.14159E+00     3.28405E-15     2.81914E+01     9.89093E+04    -1.12560E+05     1.95963E+09
     3.02838E+01     1.56045E+00     3.14159E+00     3.83877E-15     3.24162E+01    -2.66122E+05    -1.11372E+05     1.95921E+09
     3.02838E+01     1.56109E+00     3.14159E+00     4.50244E-15     3.70176E+01    -1.19478E+06    -6.54885E+04     1.95877E+09
     3.02838E+01     1.56170E+00     3.14159E+00     5.29938E-15     4.20477E+01    -2.17759E+06     3.28384E+04     1.95834E+09
     3.02838E+01     1.56226E+00     3.14159E+00     6.09198E-15     4.74859E+01    -2.30120E+06     1.49692E+05     1.95795E+09
     3.02838E+01     1.56280E+00     3.14159E+00     6.75644E-15     5.31980E+01    -1.08001E+06     2.22451E+05     1.95795E+09
     3.02838E+01     1.56330E+00     3.14159E+00     7.46984E-15     5.90909E+01     1.90220E+05     2.23022E+05     1.95809E+09
     3.02838E+01     1.56376E+00     3.14159E+00     8.28830E-15     6.51744E+01     5.86580E+05     1.82953E+05     1.95821E+09
     3.02838E+01     1.56420E+00     3.14159E+00     9.06121E-15     7.14175E+01     6.87292E+05     1.36244E+05     1.95817E+09
     3.02838E+01     1.56461E+00     3.14159E+00     9.82062E-15     7.77543E+01     5.71436E+05     9.58090E+04     1.95797E+09
     3.02838E+01     1.56500E+00     3.14159E+00     1.06960E-14     8.41772E+01     4.58199E+05     6.48388E+04     1.95750E+09
     3.02838E+01     1.56536E+00     3.14159E+00     1.18474E-14     9.07642E+01     1.53988E+05     4.50306E+04     1.95701E+09
     3.02838E+01     1.56570E+00     3.14159E+00     1.33547E-14     9.76381E+01    -1.01799E+06     5.12833E+04     1.95698E+09
     3.02838E+01     1.56602E+00     3.14159E+00     1.49049E-14     1.04836E+02    -3.04350E+06     1.03359E+05     1.95734E+09
     3.02838E+01     1.56632E+00     3.14159E+00     1.61847E-14     1.12234E+02    -3.51691E+06     1.83734E+05     1.95736E+09
     3.02838E+01     1.56660E+00     3.14159E+00     1.72689E-14     1.19672E+02    -1.92346E+06     2.41927E+05     1.95692E+09
     3.02838E+01     1.56687E+00     3.14159E+00     1.83575E-14     1.27074E+02     1.15211E+05     2.50421E+05     1.95643E+09
     3.02838E+01     1.56711E+00     3.14159E+00     1.96130E-14     1.34449E+02     1.09346E+06     2.21572E+05     1.95595E+09
     3.02838E+01     1.56734E+00     3.14159E+00     2.09665E-14     1.41819E+02     1.90214E+06     1.73390E+05     1.95528E+09
     3.02838E+01     1.56756E+00     3.14159E+00     2.23451E-14     1.49173E+02     2.29787E+06     1.15162E+05     1.95447E+09
     3.02838E+01     1.56777E+00     3.14159E+00     2.35498E-14     1.56462E+02     2.34861E+06     5.71681E+04     1.95363E+09
     3.02838E+01     1.56796E+00     3.14159E+00     2.45896E-14     1.63612E+02     2.12219E+06     6.22752E+03     1.95278E+09
     3.02838E+01     1.56814E+00     3.14159E+00     2.54818E-14     1.70570E+02     1.69358E+06    -3.38304E+04     1.95200E+09
     3.02838E+01     1.56831E+00     3.14159E+00     2.64004E-14     1.77315E+02     1.20103E+06    -6.20606E+04     1.95133E+09
     3.02838E+01     1.56846E+00     3.14159E+00     2.74462E-14     1.83866E+02     7.22297E+05    -7.95903E+04     1.95073E+09
     3.02838E+01     1.56861E+00     3.14159E+00     2.86279E-14     1.90250E+02     2.38078E+05    -8.78519E+04     1.95012E+09
     3.02838E+01     1.56875E+00     3.14159E+00     2.99541E-14     1.96492E+02    -5.96663E+05    -8.66197E+04     1.94950E+09
     3.02838E+01     1.56888E+00     3.14159E+00     3.15386E-14     2.02626E+02    -1.79096E+06    -7.40837E+04     1.94897E+09
     3.02838E+01     1.56900E+00     3.14159E+00     3.36014E-14     2.08710E+02    -2.57254E+06    -5.22678E+04     1.94862E+09
     3.02838E+01     1.56912E+00     3.14159E+00     3.62700E-14     2.14820E+02    -2.12920E+06    -3.04437E+04     1.94835E+09
     3.02838E+01     1.56923E+00     3.14159E+00     3.90667E-14     2.20990E+02     1.65600E+05    -2.28613E+04     1.94808E+09
     3.02838E+01     1.56933E+00     3.14159E+00     4.19466E-14     2.27206E+02     2.08432E+06    -3.64404E+04     1.94731E+09
     3.02838E+01     1.56942E+00     3.14159E+00     4.50659E-14     2.33458E+02     4.10808E+06    -6.93110E+04     1.94589E+09
     3.02838E+01     1.56951E+00     3.14159E+00     4.83306E-14     2.39746E+02     5.54926E+06    -1.16516E+05     1.94398E+09
     3.02838E+01     1.56959E+00     3.14159E+00     5.17359E-14     2.46056E+02     6.15829E+06    -1.69500E+05     1.94180E+09
     3.02838E+01     1.56967E+00     3.14159E+00     5.53084E-14     2.52380E+02     5.95124E+06    -2.20272E+05     1.93954E+09
     3.02838E+01     1.56975E+00     3.14159E+00     5.90981E-14     2.58713E+02     4.98568E+06    -2.62641E+05     1.93734E+09
     3.02838E+01     1.56981E+00     3.14159E+00     6.32403E-14     2.65057E+02     3.37815E+06    -2.92268E+05     1.93531E+09
     3.02838E+01     1.56988E+00     3.14159E+00     6.78751E-14     2.71428E+02     1.31641E+06    -3.06865E+05     1.93352E+09
     3.02838E+01     1.56994E+00     3.14159E+00     7.31017E-14     2.77846E+02    -1.99956E+06    -3.04382E+05     1.93214E+09
     3.02838E+01     1.57000E+00     3.14159E+00     7.91266E-14     2.84339E+02    -6.57270E+06    -2.82775E+05     1.93154E+09
     3.02838E+01     1.57005E+00     3.14159E+00     8.62689E-14     2.90950E+02    -1.01158E+07    -2.44909E+05     1.93153E+09
     3.02838E+01     1.57010E+00     3.14159E+00     9.48198E-14     2.97733E+02    -1.21250E+07    -1.98068E+05     1.93177E+09
     3.02838E+01     1.57015E+00     3.14159E+00     1.04752E-13     3.04739E+02    -1.26513E+07    -1.49131E+05     1.93198E+09
     3.02838E+01     1.57019E+00     3.14159E+00     1.15756E-13     3.11994E+02    -1.22070E+07    -1.02933E+05     1.93202E+09
     3.02838E+01     1.57023E+00     3.14159E+00     1.27442E-13     3.19495E+02    -1.09461E+07    -6.25389E+04     1.93185E+09
     3.02838E+01     1.57027E+00     3.14159E+00     1.39529E-13     3.27214E+02    -9.32592E+06    -2.95179E+04     1.93142E+09
     3.02838E+01     1.57031E+00     3.14159E+00     1.51891E-13     3.35116E+02    -7.61168E+06    -3.93092E+03     1.93081E+09
     3.02838E+01     1.57034E+00     3.14159E+00     1.64467E-13     3.43159E+02    -5.88981E+06     1.47728E+04     1.93008E+09
     3.02838E+01     1.57037E+00     3.14159E+00     1.77161E-13     3.51304E+02    -4.25430E+06     2.73801E+04     1.92926E+09
     3.02838E+01     1.57040E+00     3.14159E+00     1.89897E-13     3.59510E+02    -2.81914E+06     3.48972E+04     1.92838E+09
     3.02838E+01     1.57043E+00     3.14159E+00     2.02563E-13     3.67738E+02    -1.67983E+06     3.84917E+04     1.92747E+09
     3.02838E+01     1.57046E+00     3.14159E+00     2.14858E-13     3.75946E+02    -8.93494E+05     3.93338E+04     1.92649E+09
     3.02838E+01     1.57048E+00     3.14159E+00     2.27384E-13     3.84100E+02    -3.92937E+05     3.84541E+04     1.92549E+09
     3.02838E+01     1.57051E+00     3.14159E+00     2.40847E-13     3.92197E+02    -1.55965E+05     3.67390E+04     1.92453E+09
     3.02838E+01     1.57053E+00     3.14159E+00     2.55630E-13     4.00249E+02    -1.01530E+05     3.48292E+04     1.92369E+09
     3.02838E+01     1.57055E+00     3.14159E+00     2.71669E-13     4.08269E+02    -1.05192E+05     3.30159E+04     1.92299E+09
     3.02838E+01     1.57057E+00     3.14159E+00     2.88702E-13     4.16262E+02    -7.31611E+04     3.13177E+04     1.92240E+09
     3.02838E+01     1.57058E+00     3.14159E+00     3.06936E-13     4.24230E+02     7.57947E+04     2.95853E+04     1.92192E+09
     3.02838E+01     1.57060E+00     3.14159E+00     3.26689E-13     4.32180E+02     3.66069E+05     2.75980E+04     1.92143E+09
     3.02838E+01     1.57062E+00     3.14159E+00     3.47039E-13     4.40108E+02     8.61963E+05     2.50903E+04     1.92078E+09
     3.02838E+01     1.57063E+00     3.14159E+00     3.63965E-13     4.47954E+02     1.51372E+06     2.18271E+04     1.91983E+09
     3.02838E+01     1.57065E+00     3.14159E+00     3.69757E-13     4.55549E+02     1.98965E+06     1.80059E+04     1.91848E+09
     3.02838E+01     1.57066E+00     3.14159E+00     3.67674E-13     4.62708E+02     1.92403E+06     1.41445E+04     1.91670E+09
     3.02838E+01     1.57067E+00     3.14159E+00     3.55018E-13     4.69288E+02     9.33525E+05     1.12042E+04     1.91460E+09
     3.02838E+01     1.57068E+00     3.14159E+00     3.36677E-13     4.75195E+02    -2.34579E+05     9.91254E+03     1.91305E+09
     3.02838E+01     1.57069E+00     3.14159E+00     3.42248E-13     4.80633E+02    -6.70260E+05     9.73579E+03     1.91362E+09
     3.02838E+01     1.57070E+00     3.14159E+00     3.45021E-13     4.85796E+02    -1.12697E+05     9.49343E+03     1.91362E+09
     3.02838E+01     1.57071E+00     3.14159E+00     3.51089E-13     4.90701E+02     8.42880E+05     8.42481E+03     1.91361E+09
     3.02838E+01     1.57072E+00     3.14159E+00     3.55628E-13     4.95372E+02     1.42543E+06     6.67242E+03     1.91391E+09
     3.02838E+01     1.57073E+00     3.14159E+00     3.45413E-13     4.99718E+02     1.19164E+06     4.86138E+03     1.91317E+09
     3.02838E+01     1.57074E+00     3.14159E+00     3.33719E-13     5.03667E+02     1.23693E+05     3.71349E+03     1.91155E+09
     3.02838E+01     1.57075E+00     3.14159E+00     3.64496E-13     5.07476E+02    -3.95976E+05     3.33109E+03     1.91217E+09
     3.02838E+01     1.57075E+00     3.14159E+00     4.22536E-13     5.11502E+02    -7.78245E+05     3.39113E+03     1.91224E+09
     3.02838E+01     1.57076E+00     3.14159E+00     5.18833E-13     5.16020E+02    -3.39151E+05     3.43133E+03     1.91049E+09
     3.02838E+01     1.57077E+00     3.14159E+00     5.81515E-13     5.20973E+02     3.31228E+05     3.02327E+03     1.90862E+09
     3.02838E+01     1.57077E+00     3.14159E+00     5.94000E-13     5.25936E+02     1.24560E+06     2.12772E+03     1.90640E+09
     3.02838E+01     1.57078E+00     3.14159E+00     6.30844E-13     5.30787E+02     1.22948E+06     1.03092E+03     1.90418E+09
     3.02838E+01     1.57078E+00     3.14159E+00     6.98076E-13     5.35724E+02    -5.54114E+04     3.57914E+02     1.89985E+09
     3.02838E+01     1.57079E+00     3.14159E+00     1.77907E-12     5.44357E+02    -5.57527E+05     2.85893E+02     1.90088E+09
     3.02838E+01     1.57079E+00     3.14159E+00     1.15390E-10     9.27357E+02    -9.47141E+05     2.34583E+02     1.91742E+09
     3.02838E+01     1.57079E+00     3.14159E+00     6.25808E-10     3.20003E+03     1.08342E+03     7.65217E+01     1.92596E+09
     3.02838E+01     1.57080E+00     3.14159E+00     1.00000E-09     7.87621E+03     1.87696E+03     2.19297E+01     1.92606E+09
     3.08612E+01     4.86288E-02     3.14159E+00     1.49679E-20     2.09235E-02    -4.67714E+09     1.22953E+08     4.14761E+06
     3.08612E+01     1.42876E-01     3.14159E+00     1.18506E-20     1.42316E-02    -4.73336E+09     3.21883E+08     4.95741E+06
     3.08612E+01     2.31287E-01     3.14159E+00     1.03853E-20     1.10118E-02    -4.77675E+09     4.43645E+08     4.26280E+06
     3.08612E+01     3.14225E-01     3.14159E+00     1.14980E-20     1.28042E-02    -4.75641E+09     4.74089E+08     3.66574E+06
     3.08612E+01     3.92028E-01     3.14159E+00     1.40715E-20     1.75354E-02    -4.72678E+09     4.74527E+08     3.79116E+06
     3.08612E+01     4.65013E-01     3.14159E+00     1.57047E-20     2.01127E-02    -4.70782E+09     5.78408E+08     4.73847E+06
     3.08612E+01     5.33480E-01     3.14159E+00     1.54926E-20     1.94623E-02    -4.69510E+09     7.75206E+08     8.53971E+06
     3.08612E+01     5.97708E-01     3.14159E+00     1.49136E-20     1.81357E-02    -4.67579E+09     9.96917E+08     1.94822E+07
     3.08612E+01     6.57959E-01     3.14159E+00     1.43814E-20     1.68923E-02    -4.64473E+09     1.19675E+09     4.33282E+07
     3.08612E+01     7.14480E-01     3.14159E+00     1.40342E-20     1.65311E-02    -4.60662E+09     1.34563E+09     8.84936E+07
     3.08612E+01     7.67502E-01     3.14159E+00     1.37318E-20     1.63172E-02    -4.56113E+09     1.45996E+09     1.66262E+08
     3.08612E+01     8.17240E-01     3.14159E+00     1.32723E-20     1.57463E-02    -4.49616E+09     1.56558E+09     2.85164E+08
     3.08612E+01     8.63899E-01     3.14159E+00     1.25657E-20     1.47564E-02    -4.39581E+09     1.67514E+09     4.44158E+08
     3.08612E+01     9.07670E-01     3.14159E+00     1.17929E-20     1.37110E-02    -4.24913E+09     1.78519E+09     6.34028E+08
     3.08612E+01     9.48730E-01     3.14159E+00     1.12858E-20     1.31673E-02    -4.04587E+09     1.86927E+09     8.43896E+08
     3.08612E+01     9.87248E-01     3.14159E+00     1.09764E-20     1.29640E-02    -3.78538E+09     1.89950E+09     1.06388E+09
     3.08612E+01     1.02338E+00     3.14159E+00     1.08751E-20     1.31559E-02    -3.47622E+09     1.88368E+09     1.28465E+09
     3.08612E+01     1.05728E+00     3.14159E+00     1.09625E-20     1.39316E-02    -3.13269E+09     1.82504E+09     1.49574E+09
     3.08612E+01     1.08908E+00     3.14159E+00     1.12439E-20     1.54082E-02    -2.76992E+09     1.71590E+09     1.68594E+09
     3.08612E+01     1.11890E+00     3.14159E+00     1.17355E-20     1.76427E-02    -2.40296E+09     1.56632E+09     1.84405E+09
     3.08612E+01     1.14689E+00     3.14159E+00     1.24515E-20     2.07589E-02    -2.04580E+09     1.38630E+09     1.96238E+09
     3.08612E+01     1.17314E+00     3.14159E+00     1.34777E-20     2.51720E-02    -1.70054E+09     1.18113E+09     2.04123E+09
     3.08612E+01     1.19776E+00     3.14159E+00     1.49192E-20     3.15860E-02    -1.34789E+09     9.67797E+08     2.09310E+09
     3.08612E+01     1.22086E+00     3.14159E+00     1.62736E-20     3.86885E-02    -9.90327E+08     7.90572E+08     2.11473E+09
     3.08612E+01     1.24253E+00     3.14159E+00     1.69247E-20     4.31615E-02    -6.89548E+08     6.75514E+08     2.11392E+09
     3.08612E+01     1.26286E+00     3.14159E+00     1.70987E-20     4.55924E-02    -4.60360E+08     5.94381E+08     2.11203E+09
     3.08612E+01     1.28193E+00     3.14159E+00     1.71969E-20     4.77813E-02    -2.92933E+08     5.15243E+08     2.10974E+09
     3.08612E+01     1.29982E+00     3.14159E+00     1.73579E-20     5.01520E-02    -1.76287E+08     4.34088E+08     2.10805E+09
     3.08612E+01     1.31660E+00     3.14159E+00     1.76387E-20     5.25779E-02    -9.46091E+07     3.53233E+08     2.10647E+09
     3.08612E+01     1.33234E+00     3.14159E+00     1.80233E-20     5.50322E-02    -4.51693E+07     2.74645E+08     2.10453E+09
     3.08612E+01     1.34711E+00     3.14159E+00     1.84614E-20     5.74209E-02    -2.31564E+07     2.05891E+08     2.10239E+09
     3.08612E+01     1.36096E+00     3.14159E+00     1.89004E-20     5.95236E-02    -3.25369E+07     1.56268E+08     2.10287E+09
     3.08612E+01     1.37396E+00     3.14159E+00     1.93420E-20     6.11401E-02    -6.25213E+07     1.37666E+08     2.10319E+09
     3.08612E+01     1.38615E+00     3.14159E+00     1.96698E-20     6.22631E-02    -7.73817E+07     1.48398E+08     2.10215E+09
     3.08612E+01     1.39758E+00     3.14159E+00     1.98735E-20     6.29125E-02    -8.07912E+07     1.77015E+08     2.09994E+09
     3.08612E+01     1.40831E+00     3.14159E+00     1.99570E-20     6.32587E-02    -5.41776E+07     2.17508E+08     2.09699E+09
     3.08612E+01     1.41837E+00     3.14159E+00     2.01495E-20     6.40530E-02     3.44924E+07     2.49210E+08     2.09311E+09
     3.08612E+01     1.42781E+00     3.14159E+00     2.06045E-20     6.60229E-02     1.62696E+08     2.40577E+08     2.08674E+09
     3.08612E+01     1.43667E+00     3.14159E+00     2.12453E-20     6.89914E-02     2.42792E+08     1.93475E+08     2.07906E+09
     3.08612E+01     1.44498E+00     3.14159E+00     2.18856E-20     7.20431E-02     2.76341E+08     1.34457E+08     2.07104E+09
     3.08612E+01     1.45277E+00     3.14159E+00     2.23973E-20     7.46622E-02     2.71064E+08     7.66997E+07     2.06280E+09
     3.08612E+01     1.46008E+00     3.14159E+00     2.27705E-20     7.67399E-02     2.42377E+08     2.75884E+07     2.05370E+09
     3.08612E+01     1.46694E+00     3.14159E+00     2.30763E-20     7.82629E-02     1.99314E+08    -7.37738E+06     2.04230E+09
     3.08612E+01     1.47338E+00     3.14159E+00     2.37740E-20     7.93506E-02     1.52873E+08    -2.64635E+07     2.02728E+09
     3.08612E+01     1.47941E+00     3.14159E+00     2.74452E-20     8.01899E-02     1.13608E+08    -3.14767E+07     2.00962E+09
     3.08612E+01     1.48507E+00     3.14159E+00     4.05394E-20     8.10045E-02     8.00777E+07    -2.79452E+07     1.99259E+09
     3.08612E+01     1.49038E+00     3.14159E+00     7.65746E-20     8.21341E-02     5.55351E+07    -2.11249E+07     1.98034E+09
     3.08612E+01     1.49537E+00     3.14159E+00     1.62438E-19     8.41169E-02     3.74076E+07    -1.38225E+07     1.97273E+09
     3.08612E+01     1.50004E+00     3.14159E+00     3.49074E-19     8.78854E-02     2.02878E+07    -7.73711E+06     1.96710E+09
     3.08612E+01     1.50442E+00     3.14159E+00     7.35102E-19     9.50587E-02     5.64048E+06    -3.10846E+06     1.96261E+09
     3.08612E+01     1.50854E+00     3.14159E+00     1.49968E-18     1.08347E-01    -4.57621E+06     5.84786E+05     1.95884E+09
     3.08612E+01     1.51240E+00     3.14159E+00     2.89836E-18     1.31889E-01    -8.37551E+06     3.19374E+06     1.95508E+09
     3.08612E+01     1.51602E+00     3.14159E+00     5.51506E-18     1.72551E-01    -8.31661E+06     4.47922E+06     1.95138E+09
     3.08612E+01     1.51941E+00     3.14159E+00     9.90637E-18     2.40315E-01    -1.01734E+07     4.71265E+06     1.94785E+09
     3.08612E+01     1.52260E+00     3.14159E+00     1.67943E-17     3.47317E-01    -1.08497E+07     4.15043E+06     1.94468E+09
     3.08612E+01     1.52558E+00     3.14159E+00     2.76813E-17     5.10627E-01    -9.13142E+06     3.21590E+06     1.94186E+09
     3.08612E+01     1.52839E+00     3.14159E+00     4.50807E-17     7.55238E-01    -7.28130E+06     2.43177E+06     1.93926E+09
     3.08612E+01     1.53102E+00     3.14159E+00     7.29019E-17     1.11804E+00    -5.58055E+06     1.82613E+06     1.93679E+09
     3.08612E+01     1.53348E+00     3.14159E+00     1.17317E-16     1.65302E+00    -4.07187E+06     1.31006E+06     1.93453E+09
     3.08612E+01     1.53580E+00     3.14159E+00     1.86984E-16     2.43611E+00    -2.88434E+06     9.20507E+05     1.93258E+09
     3.08612E+01     1.53797E+00     3.14159E+00     2.92537E-16     3.56741E+00    -2.04465E+06     6.84208E+05     1.93100E+09
     3.08612E+01     1.54000E+00     3.14159E+00     4.46546E-16     5.16863E+00    -1.46411E+06     5.52235E+05     1.92974E+09
     3.08612E+01     1.54191E+00     3.14159E+00     6.64116E-16     7.38140E+00    -1.09240E+06     4.56101E+05     1.92870E+09
     3.08612E+01     1.54371E+00     3.14159E+00     9.63803E-16     1.03643E+01    -8.31041E+05     3.68021E+05     1.92783E+09
     3.08612E+01     1.54539E+00     3.14159E+00     1.36656E-15     1.42951E+01    -6.11016E+05     2.86827E+05     1.92710E+09
     3.08612E+01     1.54696E+00     3.14159E+00     1.89419E-15     1.93639E+01    -4.69887E+05     2.12670E+05     1.92648E+09
     3.08612E+01     1.54844E+00     3.14159E+00     2.57466E-15     2.57686E+01    -4.79097E+05     1.57585E+05     1.92593E+09
     3.08612E+01     1.54983E+00     3.14159E+00     3.44912E-15     3.37343E+01    -5.79733E+05     1.43865E+05     1.92540E+09
     3.08612E+01     1.55113E+00     3.14159E+00     4.54412E-15     4.34908E+01    -5.21011E+05     1.82824E+05     1.92491E+09
     3.08612E+01     1.55235E+00     3.14159E+00     5.86720E-15     5.52351E+01    -1.65163E+05     2.47717E+05     1.92448E+09
     3.08612E+01     1.55350E+00     3.14159E+00     7.39491E-15     6.90694E+01     2.20746E+05     2.86858E+05     1.92415E+09