 TITLE= "ZEUSMP/2 FIELD DATA AT TIME:    10.9801318340514      yr "
 VARIABLES= "X","Y","Z","rho","e","V1","V2","V3"
 ZONE I=  100 , J=  160 , K=    1 , F=POINT
     3.02838E+01     4.86288E-02     3.14159E+00     1.14256E-20     1.30993E-02    -4.85132E+09     9.28982E+07     1.82543E+05
     3.02838E+01     1.42876E-01     3.14159E+00     1.15072E-20     1.30081E-02    -4.84873E+09     2.89962E+08     5.28702E+05
     3.02838E+01     2.31287E-01     3.14159E+00     1.16135E-20     1.27111E-02    -4.84463E+09     4.95186E+08     5.02232E+05
     3.02838E+01     3.14225E-01     3.14159E+00     1.26542E-20     1.37210E-02    -4.82993E+09     6.20233E+08     4.69625E+05
     3.02838E+01     3.92028E-01     3.14159E+00     1.58949E-20     1.85167E-02    -4.81003E+09     6.09807E+08     4.90028E+05
     3.02838E+01     4.65013E-01     3.14159E+00     2.06246E-20     2.57825E-02    -4.79357E+09     5.80255E+08     6.94922E+05
     3.02838E+01     5.33480E-01     3.14159E+00     2.35988E-20     2.90379E-02    -4.79721E+09     6.34111E+08     2.28824E+06
     3.02838E+01     5.97708E-01     3.14159E+00     2.40829E-20     2.84983E-02    -4.79687E+09     7.61966E+08     9.70771E+06
     3.02838E+01     6.57959E-01     3.14159E+00     2.36700E-20     2.70562E-02    -4.78516E+09     9.24645E+08     3.09870E+07
     3.02838E+01     7.14480E-01     3.14159E+00     2.28237E-20     2.55414E-02    -4.75709E+09     1.09155E+09     7.68210E+07
     3.02838E+01     7.67502E-01     3.14159E+00     2.16492E-20     2.40553E-02    -4.70746E+09     1.25474E+09     1.57103E+08
     3.02838E+01     8.17240E-01     3.14159E+00     2.02956E-20     2.25874E-02    -4.62972E+09     1.40558E+09     2.77939E+08
     3.02838E+01     8.63899E-01     3.14159E+00     1.90041E-20     2.13870E-02    -4.51559E+09     1.53493E+09     4.40881E+08
     3.02838E+01     9.07670E-01     3.14159E+00     1.80438E-20     2.09581E-02    -4.34654E+09     1.63837E+09     6.41439E+08
     3.02838E+01     9.48730E-01     3.14159E+00     1.73395E-20     2.12415E-02    -4.10500E+09     1.70176E+09     8.68304E+08
     3.02838E+01     9.87248E-01     3.14159E+00     1.66692E-20     2.17211E-02    -3.79398E+09     1.71645E+09     1.10743E+09
     3.02838E+01     1.02338E+00     3.14159E+00     1.63884E-20     2.29727E-02    -3.42200E+09     1.68958E+09     1.34487E+09
     3.02838E+01     1.05728E+00     3.14159E+00     1.64568E-20     2.52677E-02    -3.00503E+09     1.62005E+09     1.56369E+09
     3.02838E+01     1.08908E+00     3.14159E+00     1.66950E-20     2.85458E-02    -2.56699E+09     1.50359E+09     1.75106E+09
     3.02838E+01     1.11890E+00     3.14159E+00     1.72500E-20     3.33717E-02    -2.12579E+09     1.33625E+09     1.90039E+09
     3.02838E+01     1.14689E+00     3.14159E+00     1.83956E-20     4.10860E-02    -1.67312E+09     1.12853E+09     2.01019E+09
     3.02838E+01     1.17314E+00     3.14159E+00     1.98948E-20     5.08747E-02    -1.19357E+09     9.56036E+08     2.08168E+09
     3.02838E+01     1.19776E+00     3.14159E+00     2.00167E-20     5.51676E-02    -8.07086E+08     8.82131E+08     2.11893E+09
     3.02838E+01     1.22086E+00     3.14159E+00     1.98069E-20     5.69375E-02    -5.29144E+08     8.69126E+08     2.12785E+09
     3.02838E+01     1.24253E+00     3.14159E+00     1.98128E-20     5.87661E-02    -3.37629E+08     8.63687E+08     2.12525E+09
     3.02838E+01     1.26286E+00     3.14159E+00     1.99967E-20     6.10664E-02    -2.12756E+08     8.50474E+08     2.11974E+09
     3.02838E+01     1.28193E+00     3.14159E+00     2.03479E-20     6.38242E-02    -1.36415E+08     8.30818E+08     2.11270E+09
     3.02838E+01     1.29982E+00     3.14159E+00     2.07461E-20     6.66929E-02    -8.70230E+07     8.10396E+08     2.10527E+09
     3.02838E+01     1.31660E+00     3.14159E+00     2.11886E-20     6.95576E-02    -4.46627E+07     7.90823E+08     2.09775E+09
     3.02838E+01     1.33234E+00     3.14159E+00     2.16855E-20     7.24569E-02    -6.31066E+06     7.71311E+08     2.09020E+09
     3.02838E+01     1.34711E+00     3.14159E+00     2.21884E-20     7.53198E-02     2.02724E+06     7.51176E+08     2.08315E+09
     3.02838E+01     1.36096E+00     3.14159E+00     2.26465E-20     7.79581E-02    -1.08653E+06     7.33616E+08     2.07700E+09
     3.02838E+01     1.37396E+00     3.14159E+00     2.30256E-20     8.01469E-02    -5.47419E+06     7.20985E+08     2.07175E+09
     3.02838E+01     1.38615E+00     3.14159E+00     2.33536E-20     8.20303E-02    -8.79571E+06     7.11032E+08     2.06738E+09
     3.02838E+01     1.39758E+00     3.14159E+00     2.36410E-20     8.37458E-02     3.55877E+05     7.02295E+08     2.06358E+09
     3.02838E+01     1.40831E+00     3.14159E+00     2.39056E-20     8.53538E-02     1.60191E+07     6.85075E+08     2.06005E+09
     3.02838E+01     1.41837E+00     3.14159E+00     2.42339E-20     8.73725E-02     4.16348E+07     6.44946E+08     2.05641E+09
     3.02838E+01     1.42781E+00     3.14159E+00     2.46354E-20     8.98920E-02     6.75646E+07     5.78814E+08     2.05244E+09
     3.02838E+01     1.43667E+00     3.14159E+00     2.50590E-20     9.26281E-02     8.59334E+07     4.95158E+08     2.04813E+09
     3.02838E+01     1.44498E+00     3.14159E+00     2.54445E-20     9.52155E-02     9.66041E+07     4.04971E+08     2.04342E+09
     3.02838E+01     1.45277E+00     3.14159E+00     2.57743E-20     9.75094E-02     9.53170E+07     3.18200E+08     2.03849E+09
     3.02838E+01     1.46008E+00     3.14159E+00     2.60254E-20     9.93268E-02     9.04831E+07     2.40946E+08     2.03325E+09
     3.02838E+01     1.46694E+00     3.14159E+00     2.62156E-20     1.00751E-01     8.25280E+07     1.74505E+08     2.02745E+09
     3.02838E+01     1.47338E+00     3.14159E+00     2.63536E-20     1.01848E-01     7.48627E+07     1.18450E+08     2.02033E+09
     3.02838E+01     1.47941E+00     3.14159E+00     2.64665E-20     1.02723E-01     6.42290E+07     7.23557E+07     2.01084E+09
     3.02838E+01     1.48507E+00     3.14159E+00     2.65994E-20     1.03436E-01     4.69789E+07     3.79635E+07     1.99841E+09
     3.02838E+01     1.49038E+00     3.14159E+00     2.67600E-20     1.04012E-01     2.71864E+07     1.65897E+07     1.98553E+09
     3.02838E+01     1.49537E+00     3.14159E+00     2.69045E-20     1.04490E-01     1.39086E+07     5.69015E+06     1.97597E+09
     3.02838E+01     1.50004E+00     3.14159E+00     2.70062E-20     1.04908E-01     7.79801E+06     5.22374E+05     1.96419E+09
     3.02838E+01     1.50442E+00     3.14159E+00     2.72814E-20     1.05284E-01     3.00182E+06    -1.68869E+06     1.95186E+09
     3.02838E+01     1.50854E+00     3.14159E+00     3.22804E-20     1.05656E-01     7.40367E+05    -2.25749E+06     1.95531E+09
     3.02838E+01     1.51240E+00     3.14159E+00     8.44175E-20     1.06322E-01    -3.78446E+05    -2.10762E+06     1.97572E+09
     3.02838E+01     1.51602E+00     3.14159E+00     2.15099E-19     1.07883E-01    -1.87052E+06    -1.70831E+06     1.97999E+09
     3.02838E+01     1.51941E+00     3.14159E+00     5.17173E-19     1.11344E-01     1.80804E+05    -1.33959E+06     1.98106E+09
     3.02838E+01     1.52260E+00     3.14159E+00     1.47965E-18     1.19904E-01     1.75961E+06    -1.18336E+06     1.98149E+09
     3.02838E+01     1.52558E+00     3.14159E+00     3.05291E-18     1.37532E-01     1.52753E+06    -1.17761E+06     1.97971E+09
     3.02838E+01     1.52839E+00     3.14159E+00     4.87814E-18     1.65659E-01     7.10064E+05    -9.52614E+05     1.97723E+09
     3.02838E+01     1.53102E+00     3.14159E+00     7.19797E-18     2.04680E-01     2.73691E+05    -5.86596E+05     1.97611E+09
     3.02838E+01     1.53348E+00     3.14159E+00     1.14858E-17     2.59732E-01     1.65482E+05    -2.95400E+05     1.97503E+09
     3.02838E+01     1.53580E+00     3.14159E+00     1.90705E-17     3.41915E-01     3.82291E+05    -1.45312E+05     1.97351E+09
     3.02838E+01     1.53797E+00     3.14159E+00     3.14622E-17     4.66121E-01     6.80476E+05    -1.13014E+05     1.97178E+09
     3.02838E+01     1.54000E+00     3.14159E+00     4.92069E-17     6.48287E-01     7.94299E+05    -1.51707E+05     1.97029E+09
     3.02838E+01     1.54191E+00     3.14159E+00     7.29819E-17     9.02188E-01     6.74023E+05    -2.11689E+05     1.96910E+09
     3.02838E+01     1.54371E+00     3.14159E+00     1.03634E-16     1.23997E+00     3.81576E+05    -2.48513E+05     1.96827E+09
     3.02838E+01     1.54539E+00     3.14159E+00     1.45771E-16     1.67858E+00    -1.24091E+04    -2.26397E+05     1.96756E+09
     3.02838E+01     1.54696E+00     3.14159E+00     2.09882E-16     2.25449E+00    -6.47250E+05    -1.32941E+05     1.96656E+09
     3.02838E+01     1.54844E+00     3.14159E+00     2.95652E-16     3.00878E+00    -7.87644E+05    -1.42238E+04     1.96559E+09
     3.02838E+01     1.54983E+00     3.14159E+00     4.00611E-16     3.96727E+00    -4.68779E+05     5.85336E+04     1.96476E+09
     3.02838E+01     1.55113E+00     3.14159E+00     5.32470E-16     5.15243E+00    -2.00151E+05     6.57891E+04     1.96395E+09
     3.02838E+01     1.55235E+00     3.14159E+00     7.03522E-16     6.60319E+00    -2.30997E+05     4.69056E+04     1.96300E+09
     3.02838E+01     1.55350E+00     3.14159E+00     9.02965E-16     8.34604E+00    -4.05754E+05     4.26599E+04     1.96219E+09
     3.02838E+01     1.55457E+00     3.14159E+00     1.14692E-15     1.04025E+01    -2.84383E+05     4.26229E+04     1.96169E+09
     3.02838E+01     1.55558E+00     3.14159E+00     1.42647E-15     1.27934E+01     9.62366E+04     1.65772E+04     1.96127E+09
     3.02838E+01     1.55653E+00     3.14159E+00     1.74455E-15     1.55215E+01     1.61112E+05    -2.39977E+04     1.96095E+09
     3.02838E+01     1.55742E+00     3.14159E+00     2.11186E-15     1.85982E+01     2.51632E+05    -6.10483E+04     1.96059E+09
     3.02838E+01     1.55825E+00     3.14159E+00     2.54549E-15     2.20443E+01     3.87751E+05    -9.89990E+04     1.95998E+09
     3.02838E+01     1.55903E+00     3.14159E+00     3.00858E-15     2.58594E+01     2.46288E+05    -1.29645E+05     1.95931E+09
     3.02838E+01     1.55976E+00     3.14159E+00     3.50189E-15     3.00137E+01    -9.89822E+02    -1.41512E+05     1.95915E+09
     3.02838E+01     1.56045E+00     3.14159E+00     4.10519E-15     3.45243E+01    -3.37789E+05    -1.31060E+05     1.95959E+09
     3.02838E+01     1.56109E+00     3.14159E+00     4.82568E-15     3.94495E+01    -7.51138E+04    -1.18751E+05     1.96001E+09
     3.02838E+01     1.56170E+00     3.14159E+00     5.52072E-15     4.47576E+01     1.78130E+05    -1.24471E+05     1.96015E+09
     3.02838E+01     1.56226E+00     3.14159E+00     6.23255E-15     5.03709E+01     2.54416E+05    -1.39577E+05     1.96014E+09
     3.02838E+01     1.56280E+00     3.14159E+00     7.06355E-15     5.62830E+01     3.64329E+05    -1.57805E+05     1.96009E+09
     3.02838E+01     1.56330E+00     3.14159E+00     7.94438E-15     6.24994E+01     4.62583E+05    -1.79213E+05     1.95978E+09
     3.02838E+01     1.56376E+00     3.14159E+00     8.88387E-15     6.89946E+01     5.17762E+05    -2.01496E+05     1.95944E+09
     3.02838E+01     1.56420E+00     3.14159E+00     9.71034E-15     7.56832E+01     5.60997E+05    -2.23318E+05     1.95918E+09
     3.02838E+01     1.56461E+00     3.14159E+00     1.05531E-14     8.24813E+01     4.32860E+05    -2.40981E+05     1.95936E+09
     3.02838E+01     1.56500E+00     3.14159E+00     1.15108E-14     8.93865E+01     2.99840E+05    -2.51125E+05     1.95905E+09
     3.02838E+01     1.56536E+00     3.14159E+00     1.24520E-14     9.63845E+01     2.73424E+05    -2.57014E+05     1.95837E+09
     3.02838E+01     1.56570E+00     3.14159E+00     1.37615E-14     1.03530E+02     3.57449E+05    -2.63330E+05     1.95779E+09
     3.02838E+01     1.56602E+00     3.14159E+00     1.52955E-14     1.10924E+02     7.84870E+05    -2.77743E+05     1.95706E+09
     3.02838E+01     1.56632E+00     3.14159E+00     1.67807E-14     1.18548E+02     1.16227E+06    -3.03649E+05     1.95616E+09
     3.02838E+01     1.56660E+00     3.14159E+00     1.80074E-14     1.26271E+02     1.10098E+06    -3.32107E+05     1.95532E+09
     3.02838E+01     1.56687E+00     3.14159E+00     1.90301E-14     1.33955E+02     4.42300E+05    -3.48590E+05     1.95493E+09
     3.02838E+01     1.56711E+00     3.14159E+00     2.02425E-14     1.41569E+02    -1.25136E+06    -3.34739E+05     1.95493E+09
     3.02838E+01     1.56734E+00     3.14159E+00     2.21234E-14     1.49249E+02    -2.86953E+06    -2.85577E+05     1.95506E+09
     3.02838E+01     1.56756E+00     3.14159E+00     2.41068E-14     1.57086E+02    -2.73773E+06    -2.26549E+05     1.95516E+09
     3.02838E+01     1.56777E+00     3.14159E+00     2.58573E-14     1.65007E+02    -4.78404E+05    -1.95165E+05     1.95492E+09
     3.02838E+01     1.56796E+00     3.14159E+00     2.71842E-14     1.72875E+02     1.68160E+06    -2.08026E+05     1.95371E+09
     3.02838E+01     1.56814E+00     3.14159E+00     2.85161E-14     1.80604E+02     2.69283E+06    -2.50417E+05     1.95181E+09
     3.02838E+01     1.56831E+00     3.14159E+00     3.02768E-14     1.88239E+02     2.87082E+06    -3.00202E+05     1.95015E+09
     3.02838E+01     1.56846E+00     3.14159E+00     3.21770E-14     1.95827E+02     2.79962E+06    -3.46692E+05     1.94881E+09
     3.02838E+01     1.56861E+00     3.14159E+00     3.39810E-14     2.03350E+02     2.62035E+06    -3.87341E+05     1.94767E+09
     3.02838E+01     1.56875E+00     3.14159E+00     3.55916E-14     2.10755E+02     2.30753E+06    -4.21062E+05     1.94665E+09
     3.02838E+01     1.56888E+00     3.14159E+00     3.70852E-14     2.17996E+02     1.84238E+06    -4.46581E+05     1.94569E+09
     3.02838E+01     1.56900E+00     3.14159E+00     3.85587E-14     2.25051E+02     1.24352E+06    -4.63012E+05     1.94483E+09
     3.02838E+01     1.56912E+00     3.14159E+00     4.00717E-14     2.31919E+02     5.39381E+05    -4.70126E+05     1.94405E+09
     3.02838E+01     1.56923E+00     3.14159E+00     4.17103E-14     2.38607E+02    -5.27608E+05    -4.67009E+05     1.94340E+09
     3.02838E+01     1.56933E+00     3.14159E+00     4.37314E-14     2.45152E+02    -2.22958E+06    -4.51351E+05     1.94293E+09
     3.02838E+01     1.56942E+00     3.14159E+00     4.62212E-14     2.51607E+02    -3.89361E+06    -4.22939E+05     1.94256E+09
     3.02838E+01     1.56951E+00     3.14159E+00     4.91082E-14     2.58015E+02    -5.37551E+06    -3.84450E+05     1.94220E+09
     3.02838E+01     1.56959E+00     3.14159E+00     5.23059E-14     2.64400E+02    -6.60038E+06    -3.39006E+05     1.94177E+09
     3.02838E+01     1.56967E+00     3.14159E+00     5.57737E-14     2.70776E+02    -7.52001E+06    -2.89620E+05     1.94126E+09
     3.02838E+01     1.56975E+00     3.14159E+00     5.95207E-14     2.77147E+02    -8.13489E+06    -2.38850E+05     1.94069E+09
     3.02838E+01     1.56981E+00     3.14159E+00     6.35687E-14     2.83521E+02    -8.45161E+06    -1.88747E+05     1.94009E+09
     3.02838E+01     1.56988E+00     3.14159E+00     6.79268E-14     2.89901E+02    -8.48129E+06    -1.40870E+05     1.93946E+09
     3.02838E+01     1.56994E+00     3.14159E+00     7.25908E-14     2.96291E+02    -8.24603E+06    -9.63529E+04     1.93879E+09
     3.02838E+01     1.57000E+00     3.14159E+00     7.75218E-14     3.02689E+02    -7.72803E+06    -5.61274E+04     1.93804E+09
     3.02838E+01     1.57005E+00     3.14159E+00     8.26392E-14     3.09086E+02    -6.92130E+06    -2.10072E+04     1.93714E+09
     3.02838E+01     1.57010E+00     3.14159E+00     8.78539E-14     3.15470E+02    -5.84198E+06     8.28142E+03     1.93606E+09
     3.02838E+01     1.57015E+00     3.14159E+00     9.31679E-14     3.21824E+02    -4.62924E+06     3.12875E+04     1.93481E+09
     3.02838E+01     1.57019E+00     3.14159E+00     9.88193E-14     3.28142E+02    -3.48533E+06     4.82280E+04     1.93347E+09
     3.02838E+01     1.57023E+00     3.14159E+00     1.05098E-13     3.34433E+02    -2.47036E+06     5.97670E+04     1.93211E+09
     3.02838E+01     1.57027E+00     3.14159E+00     1.12024E-13     3.40715E+02    -1.65091E+06     6.65526E+04     1.93071E+09
     3.02838E+01     1.57031E+00     3.14159E+00     1.19733E-13     3.47002E+02    -9.88026E+05     6.92782E+04     1.92927E+09
     3.02838E+01     1.57034E+00     3.14159E+00     1.28653E-13     3.53321E+02    -3.56747E+05     6.85940E+04     1.92782E+09
     3.02838E+01     1.57037E+00     3.14159E+00     1.38843E-13     3.59702E+02     1.16917E+05     6.53695E+04     1.92635E+09
     3.02838E+01     1.57040E+00     3.14159E+00     1.50187E-13     3.66167E+02     3.87273E+05     6.09201E+04     1.92485E+09
     3.02838E+01     1.57043E+00     3.14159E+00     1.62130E-13     3.72718E+02     6.04418E+05     5.60597E+04     1.92330E+09
     3.02838E+01     1.57046E+00     3.14159E+00     1.73519E-13     3.79320E+02     7.09799E+05     5.10906E+04     1.92169E+09
     3.02838E+01     1.57048E+00     3.14159E+00     1.82062E-13     3.85878E+02     6.08987E+05     4.64607E+04     1.92002E+09
     3.02838E+01     1.57051E+00     3.14159E+00     1.86245E-13     3.92248E+02     3.66611E+05     4.26370E+04     1.91840E+09
     3.02838E+01     1.57053E+00     3.14159E+00     1.89334E-13     3.98340E+02     3.00476E+05     3.94954E+04     1.91714E+09
     3.02838E+01     1.57055E+00     3.14159E+00     1.95428E-13     4.04193E+02     4.55786E+05     3.65022E+04     1.91654E+09
     3.02838E+01     1.57057E+00     3.14159E+00     2.08129E-13     4.09949E+02     6.15994E+05     3.34384E+04     1.91637E+09
     3.02838E+01     1.57058E+00     3.14159E+00     2.29211E-13     4.15799E+02     7.40227E+05     3.03259E+04     1.91638E+09
     3.02838E+01     1.57060E+00     3.14159E+00     2.56441E-13     4.21892E+02     8.45186E+05     2.72159E+04     1.91625E+09
     3.02838E+01     1.57062E+00     3.14159E+00     2.85613E-13     4.28270E+02     9.81913E+05     2.41070E+04     1.91583E+09
     3.02838E+01     1.57063E+00     3.14159E+00     3.15008E-13     4.34898E+02     1.24158E+06     2.09049E+04     1.91524E+09
     3.02838E+01     1.57065E+00     3.14159E+00     3.44257E-13     4.41722E+02     1.45479E+06     1.75816E+04     1.91443E+09
     3.02838E+01     1.57066E+00     3.14159E+00     3.74405E-13     4.48698E+02     1.42464E+06     1.43675E+04     1.91326E+09
     3.02838E+01     1.57067E+00     3.14159E+00     4.06508E-13     4.55808E+02     1.30264E+06     1.14852E+04     1.91199E+09
     3.02838E+01     1.57068E+00     3.14159E+00     4.36066E-13     4.63004E+02     1.17381E+06     8.96621E+03     1.91088E+09
     3.02838E+01     1.57069E+00     3.14159E+00     4.56470E-13     4.70153E+02     7.78495E+05     6.93514E+03     1.90997E+09
     3.02838E+01     1.57070E+00     3.14159E+00     4.72303E-13     4.77131E+02     1.29927E+04     5.68675E+03     1.90961E+09
     3.02838E+01     1.57071E+00     3.14159E+00     4.99605E-13     4.83979E+02    -7.66311E+05     5.50694E+03     1.91079E+09
     3.02838E+01     1.57072E+00     3.14159E+00     5.24691E-13     4.90749E+02    -8.07419E+05     5.93458E+03     1.91178E+09
     3.02838E+01     1.57073E+00     3.14159E+00     5.48011E-13     4.97400E+02    -1.18922E+06     6.60363E+03     1.91227E+09
     3.02838E+01     1.57074E+00     3.14159E+00     5.51279E-13     5.03792E+02    -6.78803E+05     7.16049E+03     1.91204E+09
     3.02838E+01     1.57075E+00     3.14159E+00     5.37367E-13     5.09730E+02     3.82424E+04     6.95909E+03     1.91084E+09
     3.02838E+01     1.57075E+00     3.14159E+00     5.36685E-13     5.15225E+02     4.82525E+05     6.21712E+03     1.91052E+09
     3.02838E+01     1.57076E+00     3.14159E+00     5.39108E-13     5.20388E+02     4.40418E+05     5.38433E+03     1.90978E+09
     3.02838E+01     1.57077E+00     3.14159E+00     5.64696E-13     5.25356E+02    -1.83379E+06     5.62626E+03     1.90949E+09
     3.02838E+01     1.57077E+00     3.14159E+00     6.66309E-13     5.30554E+02    -2.15042E+05     6.14468E+03     1.91134E+09
     3.02838E+01     1.57078E+00     3.14159E+00     7.38460E-13     5.36118E+02     1.85663E+06     5.28695E+03     1.90803E+09
     3.02838E+01     1.57078E+00     3.14159E+00     9.31470E-13     5.42322E+02     2.59979E+06     3.69118E+03     1.90422E+09
     3.02838E+01     1.57079E+00     3.14159E+00     2.51701E-12     5.54339E+02     3.67077E+06     1.81585E+03     1.90632E+09
     3.02838E+01     1.57079E+00     3.14159E+00     1.17818E-10     9.47694E+02     1.12237E+06     3.65768E+02     1.92067E+09
     3.02838E+01     1.57079E+00     3.14159E+00     6.21128E-10     3.21349E+03     8.67078E+02    -5.18346E+01     1.92595E+09
     3.02838E+01     1.57080E+00     3.14159E+00     1.00000E-09     7.87621E+03     1.69405E+03    -1.75324E+01     1.92606E+09
     3.08612E+01     4.86288E-02     3.14159E+00     1.11052E-20     1.24900E-02    -4.81564E+09     9.14423E+07     1.89761E+05
     3.08612E+01     1.42876E-01     3.14159E+00     1.12184E-20     1.24588E-02    -4.81272E+09     2.84978E+08     5.21217E+05
     3.08612E+01     2.31287E-01     3.14159E+00     1.13370E-20     1.21913E-02    -4.80870E+09     4.87046E+08     4.92703E+05
     3.08612E+01     3.14225E-01     3.14159E+00     1.22850E-20     1.30005E-02    -4.79498E+09     6.14190E+08     4.60603E+05
     3.08612E+01     3.92028E-01     3.14159E+00     1.53645E-20     1.74130E-02    -4.77586E+09     6.07793E+08     4.81730E+05
     3.08612E+01     4.65013E-01     3.14159E+00     1.99636E-20     2.42611E-02    -4.75983E+09     5.74924E+08     6.97916E+05
     3.08612E+01     5.33480E-01     3.14159E+00     2.28481E-20     2.73840E-02    -4.76338E+09     6.22761E+08     2.39840E+06
     3.08612E+01     5.97708E-01     3.14159E+00     2.33748E-20     2.70130E-02    -4.76252E+09     7.47671E+08     1.03678E+07
     3.08612E+01     6.57959E-01     3.14159E+00     2.29659E-20     2.56991E-02    -4.75007E+09     9.08048E+08     3.32731E+07
     3.08612E+01     7.14480E-01     3.14159E+00     2.21147E-20     2.42862E-02    -4.72105E+09     1.07277E+09     8.26150E+07
     3.08612E+01     7.67502E-01     3.14159E+00     2.09316E-20     2.28792E-02    -4.66974E+09     1.23328E+09     1.68850E+08
     3.08612E+01     8.17240E-01     3.14159E+00     1.95616E-20     2.14405E-02    -4.58938E+09     1.37954E+09     2.98254E+08
     3.08612E+01     8.63899E-01     3.14159E+00     1.83136E-20     2.03678E-02    -4.47007E+09     1.50297E+09     4.72075E+08
     3.08612E+01     9.07670E-01     3.14159E+00     1.74331E-20     2.00870E-02    -4.29142E+09     1.59681E+09     6.84494E+08
     3.08612E+01     9.48730E-01     3.14159E+00     1.66874E-20     2.03145E-02    -4.03734E+09     1.64278E+09     9.22484E+08
     3.08612E+01     9.87248E-01     3.14159E+00     1.60265E-20     2.07436E-02    -3.71247E+09     1.63959E+09     1.17074E+09
     3.08612E+01     1.02338E+00     3.14159E+00     1.57497E-20     2.19694E-02    -3.32635E+09     1.59352E+09     1.41221E+09
     3.08612E+01     1.05728E+00     3.14159E+00     1.57040E-20     2.40454E-02    -2.89836E+09     1.49942E+09     1.62821E+09
     3.08612E+01     1.08908E+00     3.14159E+00     1.57642E-20     2.68637E-02    -2.45673E+09     1.36393E+09     1.80566E+09
     3.08612E+01     1.11890E+00     3.14159E+00     1.60203E-20     3.06650E-02    -2.02476E+09     1.19375E+09     1.93855E+09
     3.08612E+01     1.14689E+00     3.14159E+00     1.67552E-20     3.66680E-02    -1.59981E+09     9.92629E+08     2.02802E+09
     3.08612E+01     1.17314E+00     3.14159E+00     1.79150E-20     4.54437E-02    -1.16066E+09     7.99810E+08     2.08663E+09
     3.08612E+01     1.19776E+00     3.14159E+00     1.85467E-20     5.21383E-02    -7.80731E+08     6.70215E+08     2.10262E+09
     3.08612E+01     1.22086E+00     3.14159E+00     1.86061E-20     5.56190E-02    -4.99732E+08     5.91778E+08     2.10040E+09
     3.08612E+01     1.24253E+00     3.14159E+00     1.87495E-20     5.86068E-02    -3.02394E+08     5.18184E+08     2.09575E+09
     3.08612E+01     1.26286E+00     3.14159E+00     1.90490E-20     6.17580E-02    -1.70946E+08     4.33059E+08     2.08918E+09
     3.08612E+01     1.28193E+00     3.14159E+00     1.93871E-20     6.50508E-02    -9.50458E+07     3.44829E+08     2.08139E+09
     3.08612E+01     1.29982E+00     3.14159E+00     1.98574E-20     6.81103E-02    -5.20810E+07     2.68225E+08     2.07297E+09
     3.08612E+01     1.31660E+00     3.14159E+00     2.02941E-20     7.09095E-02    -9.67083E+05     1.95318E+08     2.06486E+09
     3.08612E+01     1.33234E+00     3.14159E+00     2.07233E-20     7.39632E-02     4.76094E+07     1.12215E+08     2.05729E+09
     3.08612E+01     1.34711E+00     3.14159E+00     2.13834E-20     7.71630E-02     5.44526E+07     2.99398E+07     2.04967E+09
     3.08612E+01     1.36096E+00     3.14159E+00     2.37745E-20     8.00085E-02     2.35829E+07    -2.45728E+07     2.04753E+09
     3.08612E+01     1.37396E+00     3.14159E+00     2.50487E-20     8.21388E-02    -1.00109E+07    -3.70618E+07     2.04667E+09
     3.08612E+01     1.38615E+00     3.14159E+00     2.50612E-20     8.36032E-02    -3.35890E+07    -1.63453E+07     2.04058E+09
     3.08612E+01     1.39758E+00     3.14159E+00     2.48033E-20     8.45544E-02    -3.71584E+07     2.36922E+07     2.03820E+09
     3.08612E+01     1.40831E+00     3.14159E+00     2.46096E-20     8.54912E-02    -4.42376E+06     6.74180E+07     2.03571E+09
     3.08612E+01     1.41837E+00     3.14159E+00     2.47069E-20     8.73058E-02     7.20483E+07     9.26274E+07     2.03387E+09
     3.08612E+01     1.42781E+00     3.14159E+00     2.48979E-20     8.98889E-02     1.40500E+08     9.29849E+07     2.03172E+09
     3.08612E+01     1.43667E+00     3.14159E+00     2.51468E-20     9.27894E-02     1.91266E+08     7.76909E+07     2.02847E+09
     3.08612E+01     1.44498E+00     3.14159E+00     2.54761E-20     9.56173E-02     2.19409E+08     5.37951E+07     2.02397E+09
     3.08612E+01     1.45277E+00     3.14159E+00     2.58006E-20     9.80500E-02     2.23239E+08     2.61610E+07     2.01848E+09
     3.08612E+01     1.46008E+00     3.14159E+00     2.60701E-20     1.00034E-01     2.09050E+08    -1.49382E+05     2.01210E+09
     3.08612E+01     1.46694E+00     3.14159E+00     2.62775E-20     1.01553E-01     1.85519E+08    -2.00276E+07     2.00414E+09
     3.08612E+01     1.47338E+00     3.14159E+00     2.64752E-20     1.02702E-01     1.54428E+08    -3.05054E+07     1.99385E+09
     3.08612E+01     1.47941E+00     3.14159E+00     2.67350E-20     1.03556E-01     1.18020E+08    -3.01869E+07     1.98068E+09
     3.08612E+01     1.48507E+00     3.14159E+00     2.80933E-20     1.04217E-01     7.80525E+07    -2.33425E+07     1.96523E+09
     3.08612E+01     1.49038E+00     3.14159E+00     3.66135E-20     1.04834E-01     4.05504E+07    -1.55981E+07     1.95189E+09
     3.08612E+01     1.49537E+00     3.14159E+00     7.44306E-20     1.05734E-01     1.77810E+07    -9.01948E+06     1.94653E+09
     3.08612E+01     1.50004E+00     3.14159E+00     1.96148E-19     1.07684E-01     1.06847E+07    -4.24596E+06     1.94763E+09
     3.08612E+01     1.50442E+00     3.14159E+00     5.46215E-19     1.12509E-01     6.36212E+06    -2.10256E+06     1.95035E+09
     3.08612E+01     1.50854E+00     3.14159E+00     1.31580E-18     1.23511E-01     2.11508E+06    -1.54222E+06     1.95317E+09
     3.08612E+01     1.51240E+00     3.14159E+00     2.61853E-18     1.44626E-01    -1.39977E+06    -9.31815E+05     1.95184E+09
     3.08612E+01     1.51602E+00     3.14159E+00     5.01943E-18     1.81851E-01    -2.12854E+05    -6.36164E+05     1.94894E+09
     3.08612E+01     1.51941E+00     3.14159E+00     9.27645E-18     2.45349E-01     1.53109E+06    -9.09080E+05     1.94633E+09
     3.08612E+01     1.52260E+00     3.14159E+00     1.61492E-17     3.48189E-01     2.57872E+06    -9.19689E+05     1.94380E+09
     3.08612E+01     1.52558E+00     3.14159E+00     2.76563E-17     5.09795E-01     1.57062E+06    -6.04536E+05     1.94097E+09
     3.08612E+01     1.52839E+00     3.14159E+00     4.72568E-17     7.62480E-01     4.92752E+05    -2.90441E+05     1.93816E+09
     3.08612E+01     1.53102E+00     3.14159E+00     7.99586E-17     1.15445E+00     2.79410E+05    -1.45980E+05     1.93570E+09
     3.08612E+01     1.53348E+00     3.14159E+00     1.31583E-16     1.75099E+00     2.97712E+05    -1.31107E+05     1.93372E+09
     3.08612E+01     1.53580E+00     3.14159E+00     2.10764E-16     2.63428E+00     6.37850E+05    -1.43555E+05     1.93202E+09
     3.08612E+01     1.53797E+00     3.14159E+00     3.29024E-16     3.91127E+00     1.01437E+06    -1.59578E+05     1.93062E+09
     3.08612E+01     1.54000E+00     3.14159E+00     4.99213E-16     5.70959E+00     9.94541E+05    -1.61876E+05     1.92953E+09
     3.08612E+01     1.54191E+00     3.14159E+00     7.39205E-16     8.17899E+00     6.13148E+05    -1.11070E+05     1.92863E+09
     3.08612E+01     1.54371E+00     3.14159E+00     1.07184E-15     1.14993E+01     1.35903E+05    -3.09465E+04     1.92784E+09
     3.08612E+01     1.54539E+00     3.14159E+00     1.51771E-15     1.58700E+01    -2.89058E+05     2.88203E+04     1.92717E+09
     3.08612E+01     1.54696E+00     3.14159E+00     2.09890E-15     2.14904E+01    -6.14689E+05     5.34475E+04     1.92660E+09
     3.08612E+01     1.54844E+00     3.14159E+00     2.84375E-15     2.85735E+01    -7.98326E+05     6.61713E+04     1.92612E+09
     3.08612E+01     1.54983E+00     3.14159E+00     3.78356E-15     3.73356E+01    -7.90884E+05     1.06705E+05     1.92569E+09
     3.08612E+01     1.55113E+00     3.14159E+00     4.94163E-15     4.79870E+01    -7.11824E+05     1.74186E+05     1.92529E+09
     3.08612E+01     1.55235E+00     3.14159E+00     6.33751E-15     6.07088E+01    -6.44034E+05     2.33872E+05     1.92490E+09
     3.08612E+01     1.55350E+00     3.14159E+00     8.01129E-15     7.56804E+01    -3.59626E+05     2.37930E+05     1.92451E+09