 TITLE= "ZEUSMP/2 FIELD DATA AT TIME:    2.99458246580688      yr "
 VARIABLES= "X","Y","Z","rho","e","V1","V2","V3"
 ZONE I=  100 , J=  160 , K=    1 , F=POINT
     3.02838E+01     4.86288E-02     3.14159E+00     1.64800E-21     2.01580E-03    -4.83168E+09    -6.96747E+06     7.19449E+04
     3.02838E+01     1.42876E-01     3.14159E+00     2.26264E-21     3.41679E-03    -4.73678E+09    -6.95386E+07     3.67490E+07
     3.02838E+01     2.31287E-01     3.14159E+00     2.74855E-21     4.64857E-03    -4.66946E+09    -1.19508E+07     1.35001E+08
     3.02838E+01     3.14225E-01     3.14159E+00     2.67125E-21     4.29226E-03    -4.66703E+09     2.54340E+08     2.53324E+08
     3.02838E+01     3.92028E-01     3.14159E+00     2.63299E-21     4.06815E-03    -4.63624E+09     5.36920E+08     3.54709E+08
     3.02838E+01     4.65013E-01     3.14159E+00     2.71658E-21     4.14387E-03    -4.58402E+09     7.49035E+08     4.43103E+08
     3.02838E+01     5.33480E-01     3.14159E+00     2.96136E-21     4.66880E-03    -4.51577E+09     8.75325E+08     5.26357E+08
     3.02838E+01     5.97708E-01     3.14159E+00     3.26185E-21     5.38661E-03    -4.43575E+09     9.66519E+08     6.10340E+08
     3.02838E+01     6.57959E-01     3.14159E+00     3.48672E-21     5.96429E-03    -4.34359E+09     1.07264E+09     6.94662E+08
     3.02838E+01     7.14480E-01     3.14159E+00     3.65325E-21     6.43800E-03    -4.23863E+09     1.18476E+09     7.78052E+08
     3.02838E+01     7.67502E-01     3.14159E+00     3.86010E-21     7.06871E-03    -4.12241E+09     1.27344E+09     8.62786E+08
     3.02838E+01     8.17240E-01     3.14159E+00     4.13329E-21     7.93603E-03    -3.99589E+09     1.32817E+09     9.52224E+08
     3.02838E+01     8.63899E-01     3.14159E+00     4.45004E-21     8.96084E-03    -3.85475E+09     1.36052E+09     1.04801E+09
     3.02838E+01     9.07670E-01     3.14159E+00     4.78639E-21     1.00425E-02    -3.69454E+09     1.38335E+09     1.14987E+09
     3.02838E+01     9.48730E-01     3.14159E+00     5.12003E-21     1.10833E-02    -3.51566E+09     1.40361E+09     1.25649E+09
     3.02838E+01     9.87248E-01     3.14159E+00     5.43060E-21     1.20032E-02    -3.31887E+09     1.42484E+09     1.36571E+09
     3.02838E+01     1.02338E+00     3.14159E+00     5.72048E-21     1.28098E-02    -3.10242E+09     1.44320E+09     1.47489E+09
     3.02838E+01     1.05728E+00     3.14159E+00     6.01115E-21     1.36103E-02    -2.86587E+09     1.44646E+09     1.58163E+09
     3.02838E+01     1.08908E+00     3.14159E+00     6.35542E-21     1.46272E-02    -2.60918E+09     1.41985E+09     1.68450E+09
     3.02838E+01     1.11890E+00     3.14159E+00     6.83127E-21     1.62000E-02    -2.32812E+09     1.34605E+09     1.78297E+09
     3.02838E+01     1.14689E+00     3.14159E+00     7.50730E-21     1.87002E-02    -2.01405E+09     1.21636E+09     1.87616E+09
     3.02838E+01     1.17314E+00     3.14159E+00     8.40268E-21     2.23602E-02    -1.65461E+09     1.05771E+09     1.96132E+09
     3.02838E+01     1.19776E+00     3.14159E+00     9.26479E-21     2.61212E-02    -1.26874E+09     9.34954E+08     2.03210E+09
     3.02838E+01     1.22086E+00     3.14159E+00     9.69353E-21     2.79856E-02    -9.36703E+08     8.84594E+08     2.08376E+09
     3.02838E+01     1.24253E+00     3.14159E+00     9.90610E-21     2.88765E-02    -6.79976E+08     8.76251E+08     2.11233E+09
     3.02838E+01     1.26286E+00     3.14159E+00     1.00916E-20     2.96973E-02    -4.86777E+08     8.73992E+08     2.12849E+09
     3.02838E+01     1.28193E+00     3.14159E+00     1.02848E-20     3.06084E-02    -3.44919E+08     8.68733E+08     2.12833E+09
     3.02838E+01     1.29982E+00     3.14159E+00     1.04924E-20     3.16189E-02    -2.43058E+08     8.59691E+08     2.12614E+09
     3.02838E+01     1.31660E+00     3.14159E+00     1.07171E-20     3.27273E-02    -1.69136E+08     8.47257E+08     2.12216E+09
     3.02838E+01     1.33234E+00     3.14159E+00     1.09503E-20     3.39026E-02    -1.10953E+08     8.32456E+08     2.11716E+09
     3.02838E+01     1.34711E+00     3.14159E+00     1.11874E-20     3.51233E-02    -6.34361E+07     8.16157E+08     2.11170E+09
     3.02838E+01     1.36096E+00     3.14159E+00     1.14235E-20     3.63609E-02    -2.68952E+07     7.99246E+08     2.10616E+09
     3.02838E+01     1.37396E+00     3.14159E+00     1.16559E-20     3.75970E-02     3.11636E+06     7.80295E+08     2.10073E+09
     3.02838E+01     1.38615E+00     3.14159E+00     1.18833E-20     3.88231E-02     2.05625E+07     7.48666E+08     2.09544E+09
     3.02838E+01     1.39758E+00     3.14159E+00     1.21470E-20     4.02718E-02     4.33006E+07     6.92841E+08     2.09008E+09
     3.02838E+01     1.40831E+00     3.14159E+00     1.24346E-20     4.18933E-02     6.85268E+07     6.11612E+08     2.08437E+09
     3.02838E+01     1.41837E+00     3.14159E+00     1.27239E-20     4.35804E-02     8.86445E+07     5.11760E+08     2.07807E+09
     3.02838E+01     1.42781E+00     3.14159E+00     1.29933E-20     4.52031E-02     9.58090E+07     4.06407E+08     2.07119E+09
     3.02838E+01     1.43667E+00     3.14159E+00     1.32157E-20     4.65818E-02     9.20692E+07     3.08723E+08     2.06380E+09
     3.02838E+01     1.44498E+00     3.14159E+00     1.33841E-20     4.76562E-02     8.30124E+07     2.25308E+08     2.05586E+09
     3.02838E+01     1.45277E+00     3.14159E+00     1.35084E-20     4.84774E-02     7.11025E+07     1.57537E+08     2.04722E+09
     3.02838E+01     1.46008E+00     3.14159E+00     1.35958E-20     4.91016E-02     5.97578E+07     1.04176E+08     2.03735E+09
     3.02838E+01     1.46694E+00     3.14159E+00     1.36511E-20     4.95912E-02     4.93424E+07     6.27924E+07     2.02500E+09
     3.02838E+01     1.47338E+00     3.14159E+00     1.36734E-20     5.00014E-02     3.01766E+07     3.45273E+07     2.01204E+09
     3.02838E+01     1.47941E+00     3.14159E+00     1.36667E-20     5.03324E-02     1.64513E+07     1.90741E+07     2.00224E+09
     3.02838E+01     1.48507E+00     3.14159E+00     1.37357E-20     5.06160E-02     9.50080E+06     1.11080E+07     1.99486E+09
     3.02838E+01     1.49038E+00     3.14159E+00     1.40569E-20     5.08726E-02     3.65072E+06     7.38129E+06     1.99020E+09
     3.02838E+01     1.49537E+00     3.14159E+00     1.43834E-20     5.11091E-02    -3.22938E+06     6.36200E+06     1.98177E+09
     3.02838E+01     1.50004E+00     3.14159E+00     1.60009E-20     5.13373E-02    -4.42029E+06     6.17625E+06     1.98002E+09
     3.02838E+01     1.50442E+00     3.14159E+00     2.47887E-20     5.16182E-02     3.18364E+06     5.48839E+06     1.98441E+09
     3.02838E+01     1.50854E+00     3.14159E+00     5.44577E-20     5.21107E-02     4.07009E+06     4.14910E+06     1.99039E+09
     3.02838E+01     1.51240E+00     3.14159E+00     1.46137E-19     5.32398E-02     3.01918E+06     2.79884E+06     1.99271E+09
     3.02838E+01     1.51602E+00     3.14159E+00     3.33011E-19     5.56807E-02     1.72689E+06     1.91733E+06     1.99620E+09
     3.02838E+01     1.51941E+00     3.14159E+00     6.10625E-19     6.00564E-02     8.80359E+05     1.57391E+06     1.99604E+09
     3.02838E+01     1.52260E+00     3.14159E+00     1.02838E-18     6.69581E-02     8.44485E+05     1.45436E+06     1.99496E+09
     3.02838E+01     1.52558E+00     3.14159E+00     1.66413E-18     7.72572E-02     1.16029E+06     1.24743E+06     1.99319E+09
     3.02838E+01     1.52839E+00     3.14159E+00     2.80173E-18     9.28468E-02     1.63711E+06     9.22492E+05     1.99055E+09
     3.02838E+01     1.53102E+00     3.14159E+00     4.64792E-18     1.16533E-01     1.57206E+06     6.21782E+05     1.98757E+09
     3.02838E+01     1.53348E+00     3.14159E+00     7.69234E-18     1.52427E-01     1.47269E+06     4.02382E+05     1.98416E+09
     3.02838E+01     1.53580E+00     3.14159E+00     1.25211E-17     2.06532E-01     1.52610E+06     1.91771E+05     1.98082E+09
     3.02838E+01     1.53797E+00     3.14159E+00     1.93587E-17     2.84743E-01     1.46691E+06     2.12724E+04     1.97796E+09
     3.02838E+01     1.54000E+00     3.14159E+00     2.88510E-17     3.93240E-01     1.18589E+06    -6.97309E+04     1.97549E+09
     3.02838E+01     1.54191E+00     3.14159E+00     4.22734E-17     5.40295E-01     8.36236E+05    -1.02797E+05     1.97331E+09
     3.02838E+01     1.54371E+00     3.14159E+00     6.07201E-17     7.36067E-01     5.83601E+05    -8.24474E+04     1.97139E+09
     3.02838E+01     1.54539E+00     3.14159E+00     8.48436E-17     9.90654E-01     4.25628E+05    -3.48961E+04     1.96983E+09
     3.02838E+01     1.54696E+00     3.14159E+00     1.16072E-16     1.31433E+00     3.97517E+05     4.60733E+03     1.96872E+09
     3.02838E+01     1.54844E+00     3.14159E+00     1.56027E-16     1.71848E+00     5.13962E+05     2.69612E+04     1.96785E+09
     3.02838E+01     1.54983E+00     3.14159E+00     2.03205E-16     2.21086E+00     7.52267E+05     2.09074E+04     1.96698E+09
     3.02838E+01     1.55113E+00     3.14159E+00     2.61513E-16     2.79907E+00     7.99410E+05    -1.12000E+04     1.96599E+09
     3.02838E+01     1.55235E+00     3.14159E+00     3.48527E-16     3.51277E+00     3.38684E+05    -2.05272E+04     1.96504E+09
     3.02838E+01     1.55350E+00     3.14159E+00     4.59311E-16     4.38715E+00     2.75605E+05    -4.95817E+03     1.96420E+09
     3.02838E+01     1.55457E+00     3.14159E+00     5.57878E-16     5.40637E+00     5.59639E+05    -1.15624E+04     1.96309E+09
     3.02838E+01     1.55558E+00     3.14159E+00     6.85841E-16     6.56043E+00     3.51769E+05    -2.37764E+04     1.96233E+09
     3.02838E+01     1.55653E+00     3.14159E+00     8.56227E-16     7.88674E+00     3.23838E+05    -2.44630E+04     1.96163E+09
     3.02838E+01     1.55742E+00     3.14159E+00     1.04857E-15     9.40652E+00     2.24481E+05    -2.03790E+04     1.96079E+09
     3.02838E+01     1.55825E+00     3.14159E+00     1.32164E-15     1.11608E+01    -9.23949E+05     4.63229E+04     1.95983E+09
     3.02838E+01     1.55903E+00     3.14159E+00     1.77426E-15     1.32863E+01    -2.36358E+06     2.29739E+05     1.95899E+09
     3.02838E+01     1.55976E+00     3.14159E+00     2.23326E-15     1.58415E+01    -1.54445E+06     4.06291E+05     1.95852E+09
     3.02838E+01     1.56045E+00     3.14159E+00     2.63378E-15     1.87262E+01     2.61427E+05     4.39641E+05     1.95812E+09
     3.02838E+01     1.56109E+00     3.14159E+00     3.04259E-15     2.18562E+01     1.10028E+06     3.69185E+05     1.95760E+09
     3.02838E+01     1.56170E+00     3.14159E+00     3.48892E-15     2.52084E+01     1.82137E+06     2.59522E+05     1.95691E+09
     3.02838E+01     1.56226E+00     3.14159E+00     3.96854E-15     2.87697E+01     2.27889E+06     1.30641E+05     1.95588E+09
     3.02838E+01     1.56280E+00     3.14159E+00     4.47311E-15     3.25221E+01     2.17461E+06     8.87932E+03     1.95478E+09
     3.02838E+01     1.56330E+00     3.14159E+00     4.98730E-15     3.64382E+01     1.73839E+06    -8.32799E+04     1.95389E+09
     3.02838E+01     1.56376E+00     3.14159E+00     5.50152E-15     4.04832E+01     1.18284E+06    -1.39548E+05     1.95331E+09
     3.02838E+01     1.56420E+00     3.14159E+00     6.00664E-15     4.46200E+01     4.40076E+05    -1.59551E+05     1.95299E+09
     3.02838E+01     1.56461E+00     3.14159E+00     6.58698E-15     4.88409E+01    -8.66863E+05    -1.34212E+05     1.95288E+09
     3.02838E+01     1.56500E+00     3.14159E+00     7.37870E-15     5.32065E+01    -2.21249E+06    -6.09375E+04     1.95293E+09
     3.02838E+01     1.56536E+00     3.14159E+00     8.36364E-15     5.77976E+01    -2.54035E+06     3.24538E+04     1.95302E+09
     3.02838E+01     1.56570E+00     3.14159E+00     9.46853E-15     6.26518E+01    -1.70796E+06     1.05548E+05     1.95290E+09
     3.02838E+01     1.56602E+00     3.14159E+00     1.04522E-14     6.77171E+01     9.65941E+04     1.28201E+05     1.95206E+09
     3.02838E+01     1.56632E+00     3.14159E+00     1.14620E-14     7.29221E+01     4.98845E+05     1.14318E+05     1.95086E+09
     3.02838E+01     1.56660E+00     3.14159E+00     1.26337E-14     7.82694E+01     5.85238E+05     9.46981E+04     1.94981E+09
     3.02838E+01     1.56687E+00     3.14159E+00     1.39494E-14     8.37818E+01     7.90388E+05     7.32251E+04     1.94894E+09
     3.02838E+01     1.56711E+00     3.14159E+00     1.52470E-14     8.94401E+01     1.24364E+06     4.53935E+04     1.94774E+09
     3.02838E+01     1.56734E+00     3.14159E+00     1.66014E-14     9.52107E+01     1.56040E+06     1.05336E+04     1.94630E+09
     3.02838E+01     1.56756E+00     3.14159E+00     1.81626E-14     1.01100E+02     1.33607E+06    -2.23094E+04     1.94535E+09
     3.02838E+01     1.56777E+00     3.14159E+00     1.96928E-14     1.07100E+02     7.59247E+05    -4.32513E+04     1.94531E+09
     3.02838E+01     1.56796E+00     3.14159E+00     2.10465E-14     1.13139E+02     3.11382E+05    -5.17221E+04     1.94622E+09
     3.02838E+01     1.56814E+00     3.14159E+00     2.24494E-14     1.19172E+02     1.94468E+05    -5.38549E+04     1.94744E+09
     3.02838E+01     1.56831E+00     3.14159E+00     2.36720E-14     1.25159E+02     6.78897E+05    -5.89115E+04     1.94816E+09
     3.02838E+01     1.56846E+00     3.14159E+00     2.48026E-14     1.31049E+02     1.42568E+06    -7.39902E+04     1.94831E+09
     3.02838E+01     1.56861E+00     3.14159E+00     2.59360E-14     1.36819E+02     2.26080E+06    -1.00535E+05     1.94789E+09
     3.02838E+01     1.56875E+00     3.14159E+00     2.71083E-14     1.42467E+02     3.11874E+06    -1.37623E+05     1.94693E+09
     3.02838E+01     1.56888E+00     3.14159E+00     2.84075E-14     1.48000E+02     3.73227E+06    -1.82119E+05     1.94553E+09
     3.02838E+01     1.56900E+00     3.14159E+00     2.99015E-14     1.53442E+02     4.00189E+06    -2.28924E+05     1.94390E+09
     3.02838E+01     1.56912E+00     3.14159E+00     3.15736E-14     1.58813E+02     3.96569E+06    -2.73492E+05     1.94222E+09
     3.02838E+01     1.56923E+00     3.14159E+00     3.33248E-14     1.64124E+02     3.66315E+06    -3.12624E+05     1.94067E+09
     3.02838E+01     1.56933E+00     3.14159E+00     3.50823E-14     1.69366E+02     3.12568E+06    -3.44132E+05     1.93938E+09
     3.02838E+01     1.56942E+00     3.14159E+00     3.68842E-14     1.74532E+02     2.41886E+06    -3.66852E+05     1.93832E+09
     3.02838E+01     1.56951E+00     3.14159E+00     3.88457E-14     1.79624E+02     1.62204E+06    -3.80631E+05     1.93734E+09
     3.02838E+01     1.56959E+00     3.14159E+00     4.10736E-14     1.84658E+02     7.84120E+05    -3.86058E+05     1.93624E+09
     3.02838E+01     1.56967E+00     3.14159E+00     4.35985E-14     1.89653E+02    -3.23853E+05    -3.83369E+05     1.93498E+09
     3.02838E+01     1.56975E+00     3.14159E+00     4.63766E-14     1.94627E+02    -2.76784E+06    -3.70347E+05     1.93389E+09
     3.02838E+01     1.56981E+00     3.14159E+00     4.92684E-14     1.99581E+02    -6.06958E+06    -3.43682E+05     1.93349E+09
     3.02838E+01     1.56988E+00     3.14159E+00     5.20581E-14     2.04498E+02    -9.94408E+06    -3.01763E+05     1.93376E+09
     3.02838E+01     1.56994E+00     3.14159E+00     5.45646E-14     2.09346E+02    -1.38896E+07    -2.45206E+05     1.93482E+09
     3.02838E+01     1.57000E+00     3.14159E+00     5.67812E-14     2.14089E+02    -1.72694E+07    -1.77127E+05     1.93646E+09
     3.02838E+01     1.57005E+00     3.14159E+00     5.88838E-14     2.18707E+02    -1.94455E+07    -1.02664E+05     1.93827E+09
     3.02838E+01     1.57010E+00     3.14159E+00     6.11186E-14     2.23196E+02    -1.99929E+07    -2.79512E+04     1.93988E+09
     3.02838E+01     1.57015E+00     3.14159E+00     6.36819E-14     2.27571E+02    -1.91740E+07     4.16757E+04     1.94114E+09
     3.02838E+01     1.57019E+00     3.14159E+00     6.66590E-14     2.31854E+02    -1.70056E+07     1.02261E+05     1.94201E+09
     3.02838E+01     1.57023E+00     3.14159E+00     7.01158E-14     2.36068E+02    -1.37091E+07     1.49978E+05     1.94251E+09
     3.02838E+01     1.57027E+00     3.14159E+00     7.39917E-14     2.40231E+02    -9.58728E+06     1.82670E+05     1.94266E+09
     3.02838E+01     1.57031E+00     3.14159E+00     7.80928E-14     2.44353E+02    -5.39573E+06     2.01183E+05     1.94245E+09
     3.02838E+01     1.57034E+00     3.14159E+00     8.23282E-14     2.48431E+02    -1.54996E+06     2.07771E+05     1.94199E+09
     3.02838E+01     1.57037E+00     3.14159E+00     8.67754E-14     2.52464E+02     9.34236E+05     2.05559E+05     1.94124E+09
     3.02838E+01     1.57040E+00     3.14159E+00     9.18290E-14     2.56458E+02     2.42995E+06     1.97715E+05     1.94024E+09
     3.02838E+01     1.57043E+00     3.14159E+00     9.76251E-14     2.60431E+02     3.76669E+06     1.86098E+05     1.93904E+09
     3.02838E+01     1.57046E+00     3.14159E+00     1.04263E-13     2.64401E+02     4.88541E+06     1.71774E+05     1.93767E+09
     3.02838E+01     1.57048E+00     3.14159E+00     1.11755E-13     2.68385E+02     5.77219E+06     1.55748E+05     1.93619E+09
     3.02838E+01     1.57051E+00     3.14159E+00     1.20035E-13     2.72394E+02     6.45218E+06     1.38859E+05     1.93461E+09
     3.02838E+01     1.57053E+00     3.14159E+00     1.29026E-13     2.76434E+02     6.89549E+06     1.21813E+05     1.93297E+09
     3.02838E+01     1.57055E+00     3.14159E+00     1.38706E-13     2.80506E+02     7.08195E+06     1.05255E+05     1.93127E+09
     3.02838E+01     1.57057E+00     3.14159E+00     1.49046E-13     2.84611E+02     7.00971E+06     8.97354E+04     1.92952E+09
     3.02838E+01     1.57058E+00     3.14159E+00     1.59824E-13     2.88744E+02     6.72724E+06     7.56484E+04     1.92777E+09
     3.02838E+01     1.57060E+00     3.14159E+00     1.70073E-13     2.92883E+02     6.37395E+06     6.31312E+04     1.92607E+09
     3.02838E+01     1.57062E+00     3.14159E+00     1.79497E-13     2.96997E+02     6.10761E+06     5.19982E+04     1.92440E+09
     3.02838E+01     1.57063E+00     3.14159E+00     1.83467E-13     3.01003E+02     5.96184E+06     4.20791E+04     1.92262E+09
     3.02838E+01     1.57065E+00     3.14159E+00     1.82940E-13     3.04796E+02     5.72480E+06     3.30851E+04     1.92050E+09
     3.02838E+01     1.57066E+00     3.14159E+00     1.77451E-13     3.08294E+02     4.42858E+06     2.57064E+04     1.91814E+09
     3.02838E+01     1.57067E+00     3.14159E+00     1.66371E-13     3.11425E+02     6.07251E+05     2.23217E+04     1.91667E+09
     3.02838E+01     1.57068E+00     3.14159E+00     1.71481E-13     3.14310E+02    -7.56020E+05     2.25673E+04     1.91717E+09
     3.02838E+01     1.57069E+00     3.14159E+00     1.69667E-13     3.17043E+02     9.74129E+05     2.26050E+04     1.91619E+09
     3.02838E+01     1.57070E+00     3.14159E+00     1.72044E-13     3.19610E+02     1.85008E+06     2.10376E+04     1.91518E+09
     3.02838E+01     1.57071E+00     3.14159E+00     1.76953E-13     3.22069E+02     2.39151E+06     1.88348E+04     1.91373E+09
     3.02838E+01     1.57072E+00     3.14159E+00     1.92895E-13     3.24514E+02     3.32797E+06     1.61119E+04     1.91233E+09
     3.02838E+01     1.57073E+00     3.14159E+00     2.40384E-13     3.27200E+02     3.83964E+06     1.29472E+04     1.91217E+09
     3.02838E+01     1.57074E+00     3.14159E+00     3.29981E-13     3.30517E+02     3.88644E+06     9.73256E+03     1.91212E+09
     3.02838E+01     1.57075E+00     3.14159E+00     4.36471E-13     3.34697E+02     3.40783E+06     6.82951E+03     1.91174E+09
     3.02838E+01     1.57075E+00     3.14159E+00     5.36040E-13     3.39672E+02     2.83490E+06     4.50635E+03     1.91069E+09
     3.02838E+01     1.57076E+00     3.14159E+00     6.27587E-13     3.45256E+02     2.19351E+06     2.79498E+03     1.90927E+09
     3.02838E+01     1.57077E+00     3.14159E+00     6.98865E-13     3.51227E+02     1.38427E+06     1.69373E+03     1.90758E+09
     3.02838E+01     1.57077E+00     3.14159E+00     7.61736E-13     3.57394E+02     7.27276E+05     1.13117E+03     1.90526E+09
     3.02838E+01     1.57078E+00     3.14159E+00     8.57484E-13     3.63807E+02     5.52669E+05     8.55921E+02     1.90306E+09
     3.02838E+01     1.57078E+00     3.14159E+00     1.21204E-12     3.71495E+02     1.23671E+06     4.70764E+02     1.90388E+09
     3.02838E+01     1.57079E+00     3.14159E+00     3.51340E-12     3.87962E+02     8.96199E+05    -4.08477E+01     1.90656E+09
     3.02838E+01     1.57079E+00     3.14159E+00     1.37648E-10     8.49388E+02    -3.87221E+06    -1.71243E+02     1.91949E+09
     3.02838E+01     1.57079E+00     3.14159E+00     6.27441E-10     3.19532E+03     1.61751E+03    -4.86701E+01     1.92595E+09
     3.02838E+01     1.57080E+00     3.14159E+00     1.00000E-09     7.87620E+03     2.53627E+03    -1.45186E+01     1.92606E+09
     3.08612E+01     4.86288E-02     3.14159E+00     1.56699E-21     1.85148E-03    -4.79936E+09     8.49073E+06     4.48964E+04
     3.08612E+01     1.42876E-01     3.14159E+00     2.12405E-21     3.07047E-03    -4.70950E+09    -4.27016E+07     3.49046E+07
     3.08612E+01     2.31287E-01     3.14159E+00     2.65139E-21     4.37560E-03    -4.63679E+09    -5.54074E+06     1.31513E+08
     3.08612E+01     3.14225E-01     3.14159E+00     2.61099E-21     4.12768E-03    -4.63127E+09     2.42566E+08     2.49857E+08
     3.08612E+01     3.92028E-01     3.14159E+00     2.57860E-21     3.92317E-03    -4.60007E+09     5.21867E+08     3.51735E+08
     3.08612E+01     4.65013E-01     3.14159E+00     2.65701E-21     3.98291E-03    -4.54839E+09     7.31790E+08     4.40224E+08
     3.08612E+01     5.33480E-01     3.14159E+00     2.89569E-21     4.48742E-03    -4.48021E+09     8.56053E+08     5.23241E+08
     3.08612E+01     5.97708E-01     3.14159E+00     3.19274E-21     5.18780E-03    -4.39996E+09     9.44634E+08     6.07084E+08
     3.08612E+01     6.57959E-01     3.14159E+00     3.41361E-21     5.75139E-03    -4.30746E+09     1.04819E+09     6.91493E+08
     3.08612E+01     7.14480E-01     3.14159E+00     3.57643E-21     6.21258E-03    -4.20202E+09     1.15746E+09     7.75243E+08
     3.08612E+01     7.67502E-01     3.14159E+00     3.78178E-21     6.83219E-03    -4.08516E+09     1.24214E+09     8.60728E+08
     3.08612E+01     8.17240E-01     3.14159E+00     4.05542E-21     7.68700E-03    -3.95770E+09     1.29224E+09     9.51401E+08
     3.08612E+01     8.63899E-01     3.14159E+00     4.37104E-21     8.69090E-03    -3.81490E+09     1.31999E+09     1.04877E+09
     3.08612E+01     9.07670E-01     3.14159E+00     4.70382E-21     9.73750E-03    -3.65271E+09     1.33735E+09     1.15256E+09
     3.08612E+01     9.48730E-01     3.14159E+00     5.03455E-21     1.07429E-02    -3.47164E+09     1.35073E+09     1.26148E+09
     3.08612E+01     9.87248E-01     3.14159E+00     5.34275E-21     1.16307E-02    -3.27166E+09     1.36372E+09     1.37334E+09
     3.08612E+01     1.02338E+00     3.14159E+00     5.62651E-21     1.23934E-02    -3.05090E+09     1.37208E+09     1.48536E+09
     3.08612E+01     1.05728E+00     3.14159E+00     5.90043E-21     1.31127E-02    -2.80955E+09     1.36565E+09     1.59490E+09
     3.08612E+01     1.08908E+00     3.14159E+00     6.21707E-21     1.40058E-02    -2.54791E+09     1.33011E+09     1.70020E+09
     3.08612E+01     1.11890E+00     3.14159E+00     6.62930E-21     1.53061E-02    -2.26437E+09     1.25198E+09     1.80019E+09
     3.08612E+01     1.14689E+00     3.14159E+00     7.19216E-21     1.72927E-02    -1.95449E+09     1.12877E+09     1.89280E+09
     3.08612E+01     1.17314E+00     3.14159E+00     7.96343E-21     2.02544E-02    -1.60973E+09     9.76012E+08     1.97450E+09
     3.08612E+01     1.19776E+00     3.14159E+00     8.78786E-21     2.37267E-02    -1.24450E+09     8.33540E+08     2.04096E+09
     3.08612E+01     1.22086E+00     3.14159E+00     9.39045E-21     2.63726E-02    -9.16899E+08     7.36476E+08     2.08929E+09
     3.08612E+01     1.24253E+00     3.14159E+00     9.75336E-21     2.80030E-02    -6.57885E+08     6.77514E+08     2.11162E+09
     3.08612E+01     1.26286E+00     3.14159E+00     1.00311E-20     2.93145E-02    -4.63500E+08     6.30031E+08     2.10853E+09
     3.08612E+01     1.28193E+00     3.14159E+00     1.02974E-20     3.06079E-02    -3.21158E+08     5.82152E+08     2.10357E+09
     3.08612E+01     1.29982E+00     3.14159E+00     1.05633E-20     3.19208E-02    -2.20313E+08     5.34891E+08     2.09763E+09
     3.08612E+01     1.31660E+00     3.14159E+00     1.08075E-20     3.32157E-02    -1.49982E+08     4.92810E+08     2.09116E+09
     3.08612E+01     1.33234E+00     3.14159E+00     1.10311E-20     3.44676E-02    -8.99378E+07     4.53542E+08     2.08430E+09
     3.08612E+01     1.34711E+00     3.14159E+00     1.12548E-20     3.57435E-02    -3.97226E+07     4.12044E+08     2.07727E+09
     3.08612E+01     1.36096E+00     3.14159E+00     1.14846E-20     3.70353E-02    -7.18156E+06     3.73056E+08     2.07059E+09
     3.08612E+01     1.37396E+00     3.14159E+00     1.16936E-20     3.82249E-02     1.02206E+07     3.49574E+08     2.06445E+09
     3.08612E+01     1.38615E+00     3.14159E+00     1.18817E-20     3.93053E-02     3.26289E+07     3.45433E+08     2.05971E+09
     3.08612E+01     1.39758E+00     3.14159E+00     1.20931E-20     4.04872E-02     8.49308E+07     3.43797E+08     2.05644E+09
     3.08612E+01     1.40831E+00     3.14159E+00     1.23524E-20     4.19005E-02     1.63340E+08     3.20742E+08     2.05407E+09
     3.08612E+01     1.41837E+00     3.14159E+00     1.26595E-20     4.35850E-02     2.37322E+08     2.64995E+08     2.05146E+09
     3.08612E+01     1.42781E+00     3.14159E+00     1.29715E-20     4.53880E-02     2.62493E+08     1.90441E+08     2.04776E+09
     3.08612E+01     1.43667E+00     3.14159E+00     1.32343E-20     4.69504E-02     2.50596E+08     1.18956E+08     2.04233E+09
     3.08612E+01     1.44498E+00     3.14159E+00     1.34274E-20     4.81665E-02     2.19945E+08     6.09173E+07     2.03471E+09
     3.08612E+01     1.45277E+00     3.14159E+00     1.35539E-20     4.90612E-02     1.80429E+08     1.92928E+07     2.02438E+09
     3.08612E+01     1.46008E+00     3.14159E+00     1.36356E-20     4.97111E-02     1.38357E+08    -5.35987E+06     2.00957E+09
     3.08612E+01     1.46694E+00     3.14159E+00     1.38085E-20     5.01902E-02     9.75875E+07    -1.37263E+07     1.98795E+09
     3.08612E+01     1.47338E+00     3.14159E+00     1.54333E-20     5.05801E-02     5.56022E+07    -1.29295E+07     1.97013E+09
     3.08612E+01     1.47941E+00     3.14159E+00     2.29942E-20     5.10094E-02     2.76694E+07    -1.00286E+07     1.96785E+09
     3.08612E+01     1.48507E+00     3.14159E+00     3.98469E-20     5.16371E-02     1.33987E+07    -6.36299E+06     1.97562E+09
     3.08612E+01     1.49038E+00     3.14159E+00     9.14610E-20     5.28196E-02     6.42173E+06    -3.84030E+06     1.97519E+09
     3.08612E+01     1.49537E+00     3.14159E+00     1.91844E-19     5.50937E-02     1.90219E+06    -4.03345E+06     1.97458E+09
     3.08612E+01     1.50004E+00     3.14159E+00     3.78888E-19     5.92254E-02     1.77969E+06    -5.76965E+06     1.97474E+09
     3.08612E+01     1.50442E+00     3.14159E+00     7.34056E-19     6.65336E-02     5.89669E+06    -6.41070E+06     1.97310E+09
     3.08612E+01     1.50854E+00     3.14159E+00     1.43874E-18     7.94839E-02     5.31251E+06    -5.41875E+06     1.96874E+09
     3.08612E+01     1.51240E+00     3.14159E+00     2.58874E-18     1.01280E-01     2.85786E+06    -3.97759E+06     1.96479E+09
     3.08612E+01     1.51602E+00     3.14159E+00     4.49860E-18     1.36181E-01    -1.78853E+05    -2.33288E+06     1.96098E+09
     3.08612E+01     1.51941E+00     3.14159E+00     7.33089E-18     1.89099E-01     2.24370E+05    -1.12264E+06     1.95704E+09
     3.08612E+01     1.52260E+00     3.14159E+00     1.21567E-17     2.68333E-01     8.63330E+05    -7.30423E+05     1.95276E+09
     3.08612E+01     1.52558E+00     3.14159E+00     1.98738E-17     3.87061E-01     1.60093E+06    -6.20822E+05     1.94869E+09
     3.08612E+01     1.52839E+00     3.14159E+00     3.21656E-17     5.62824E-01     2.45149E+06    -5.73955E+05     1.94506E+09
     3.08612E+01     1.53102E+00     3.14159E+00     5.13813E-17     8.20283E-01     2.53648E+06    -5.67211E+05     1.94177E+09
     3.08612E+01     1.53348E+00     3.14159E+00     8.03731E-17     1.19171E+00     2.50323E+06    -6.05653E+05     1.93889E+09
     3.08612E+01     1.53580E+00     3.14159E+00     1.23340E-16     1.71723E+00     2.53897E+06    -6.40500E+05     1.93650E+09
     3.08612E+01     1.53797E+00     3.14159E+00     1.86103E-16     2.44776E+00     2.28037E+06    -6.12759E+05     1.93449E+09
     3.08612E+01     1.54000E+00     3.14159E+00     2.76086E-16     3.45003E+00     1.73140E+06    -5.22335E+05     1.93277E+09
     3.08612E+01     1.54191E+00     3.14159E+00     4.01425E-16     4.79883E+00     1.21294E+06    -4.17319E+05     1.93133E+09
     3.08612E+01     1.54371E+00     3.14159E+00     5.72756E-16     6.58273E+00     9.26635E+05    -3.35038E+05     1.93010E+09
     3.08612E+01     1.54539E+00     3.14159E+00     8.04319E-16     8.90358E+00     8.27648E+05    -2.88864E+05     1.92898E+09
     3.08612E+01     1.54696E+00     3.14159E+00     1.10995E-15     1.18754E+01     8.88970E+05    -2.77805E+05     1.92799E+09
     3.08612E+01     1.54844E+00     3.14159E+00     1.50497E-15     1.56190E+01     1.02347E+06    -2.76521E+05     1.92711E+09
     3.08612E+01     1.54983E+00     3.14159E+00     2.00853E-15     2.02597E+01     1.03752E+06    -2.47062E+05     1.92628E+09
     3.08612E+01     1.55113E+00     3.14159E+00     2.64084E-15     2.59310E+01     9.53184E+05    -1.83799E+05     1.92548E+09
     3.08612E+01     1.55235E+00     3.14159E+00     3.41384E-15     3.27569E+01     8.74340E+05    -1.59342E+05     1.92477E+09
     3.08612E+01     1.55350E+00     3.14159E+00     4.35224E-15     4.08557E+01     1.23107E+06    -2.12089E+05     1.92414E+09