 TITLE= "ZEUSMP/2 FIELD DATA AT TIME:    12.9765186854128      yr "
 VARIABLES= "X","Y","Z","rho","e","V1","V2","V3"
 ZONE I=  100 , J=  160 , K=    1 , F=POINT
     3.02838E+01     4.86288E-02     3.14159E+00     2.38207E-20     6.25723E-02    -4.27834E+09    -5.46433E+07     4.76689E+07
     3.02838E+01     1.42876E-01     3.14159E+00     1.77483E-20     3.08321E-02    -4.62182E+09    -1.29343E+08     6.14118E+07
     3.02838E+01     2.31287E-01     3.14159E+00     9.18599E-21     9.50478E-03    -4.87945E+09     2.24782E+07     1.00429E+08
     3.02838E+01     3.14225E-01     3.14159E+00     7.14900E-21     5.97709E-03    -4.93872E+09     3.15052E+08     1.39554E+08
     3.02838E+01     3.92028E-01     3.14159E+00     6.28641E-21     4.61587E-03    -4.93815E+09     5.90523E+08     1.84327E+08
     3.02838E+01     4.65013E-01     3.14159E+00     6.02255E-21     4.11041E-03    -4.91000E+09     8.77254E+08     2.38400E+08
     3.02838E+01     5.33480E-01     3.14159E+00     5.68989E-21     3.61172E-03    -4.86764E+09     1.09493E+09     2.99137E+08
     3.02838E+01     5.97708E-01     3.14159E+00     5.73653E-21     3.65048E-03    -4.82186E+09     1.24523E+09     3.69441E+08
     3.02838E+01     6.57959E-01     3.14159E+00     6.01183E-21     3.95176E-03    -4.76731E+09     1.36553E+09     4.52387E+08
     3.02838E+01     7.14480E-01     3.14159E+00     6.44759E-21     4.46455E-03    -4.68600E+09     1.48810E+09     5.53299E+08
     3.02838E+01     7.67502E-01     3.14159E+00     6.73384E-21     4.83188E-03    -4.56455E+09     1.63447E+09     6.72175E+08
     3.02838E+01     8.17240E-01     3.14159E+00     6.75481E-21     4.90918E-03    -4.40388E+09     1.79595E+09     8.05034E+08
     3.02838E+01     8.63899E-01     3.14159E+00     6.77786E-21     4.98097E-03    -4.20789E+09     1.95699E+09     9.48503E+08
     3.02838E+01     9.07670E-01     3.14159E+00     6.98110E-21     5.29631E-03    -3.97581E+09     2.08867E+09     1.10026E+09
     3.02838E+01     9.48730E-01     3.14159E+00     7.42184E-21     5.94940E-03    -3.70789E+09     2.14761E+09     1.25717E+09
     3.02838E+01     9.87248E-01     3.14159E+00     8.03510E-21     6.91347E-03    -3.41353E+09     2.13663E+09     1.41729E+09
     3.02838E+01     1.02338E+00     3.14159E+00     8.93821E-21     8.51072E-03    -3.09967E+09     2.07145E+09     1.57938E+09
     3.02838E+01     1.05728E+00     3.14159E+00     1.01305E-20     1.09859E-02    -2.76824E+09     1.95277E+09     1.73824E+09
     3.02838E+01     1.08908E+00     3.14159E+00     1.14609E-20     1.42714E-02    -2.42349E+09     1.80033E+09     1.88434E+09
     3.02838E+01     1.11890E+00     3.14159E+00     1.28534E-20     1.83161E-02    -2.07575E+09     1.62526E+09     2.00846E+09
     3.02838E+01     1.14689E+00     3.14159E+00     1.45179E-20     2.38113E-02    -1.72746E+09     1.41953E+09     2.10552E+09
     3.02838E+01     1.17314E+00     3.14159E+00     1.67299E-20     3.17516E-02    -1.36824E+09     1.19275E+09     2.17578E+09
     3.02838E+01     1.19776E+00     3.14159E+00     1.91086E-20     4.11596E-02    -9.90847E+08     1.01057E+09     2.22185E+09
     3.02838E+01     1.22086E+00     3.14159E+00     2.02347E-20     4.65202E-02    -6.75527E+08     9.25417E+08     2.24701E+09
     3.02838E+01     1.24253E+00     3.14159E+00     2.06819E-20     4.92433E-02    -4.45010E+08     9.00795E+08     2.24677E+09
     3.02838E+01     1.26286E+00     3.14159E+00     2.11655E-20     5.18732E-02    -2.82687E+08     8.83857E+08     2.24351E+09
     3.02838E+01     1.28193E+00     3.14159E+00     2.17842E-20     5.49244E-02    -1.74923E+08     8.61376E+08     2.23761E+09
     3.02838E+01     1.29982E+00     3.14159E+00     2.24894E-20     5.82836E-02    -1.11151E+08     8.35118E+08     2.23064E+09
     3.02838E+01     1.31660E+00     3.14159E+00     2.31930E-20     6.17186E-02    -6.91863E+07     8.09043E+08     2.22362E+09
     3.02838E+01     1.33234E+00     3.14159E+00     2.38844E-20     6.50691E-02    -3.64977E+07     7.84708E+08     2.21685E+09
     3.02838E+01     1.34711E+00     3.14159E+00     2.45422E-20     6.82505E-02    -2.48416E+07     7.62682E+08     2.21069E+09
     3.02838E+01     1.36096E+00     3.14159E+00     2.50839E-20     7.09893E-02    -3.57085E+07     7.44906E+08     2.20543E+09
     3.02838E+01     1.37396E+00     3.14159E+00     2.55044E-20     7.31112E-02    -5.14052E+07     7.32006E+08     2.20164E+09
     3.02838E+01     1.38615E+00     3.14159E+00     2.58742E-20     7.48685E-02    -4.98929E+07     7.22028E+08     2.19880E+09
     3.02838E+01     1.39758E+00     3.14159E+00     2.62355E-20     7.66131E-02    -3.26454E+07     7.12329E+08     2.19627E+09
     3.02838E+01     1.40831E+00     3.14159E+00     2.66448E-20     7.86357E-02     1.38224E+07     6.93203E+08     2.19300E+09
     3.02838E+01     1.41837E+00     3.14159E+00     2.71092E-20     8.09693E-02     5.05135E+07     6.45783E+08     2.18890E+09
     3.02838E+01     1.42781E+00     3.14159E+00     2.77261E-20     8.41437E-02     7.91126E+07     5.65708E+08     2.18396E+09
     3.02838E+01     1.43667E+00     3.14159E+00     2.83539E-20     8.74816E-02     9.74616E+07     4.67944E+08     2.17811E+09
     3.02838E+01     1.44498E+00     3.14159E+00     2.89294E-20     9.06086E-02     9.71120E+07     3.70559E+08     2.17162E+09
     3.02838E+01     1.45277E+00     3.14159E+00     2.93767E-20     9.30754E-02     9.20573E+07     2.84249E+08     2.16448E+09
     3.02838E+01     1.46008E+00     3.14159E+00     2.97297E-20     9.50070E-02     8.25076E+07     2.11161E+08     2.15671E+09
     3.02838E+01     1.46694E+00     3.14159E+00     3.00123E-20     9.64885E-02     7.31550E+07     1.50878E+08     2.14820E+09
     3.02838E+01     1.47338E+00     3.14159E+00     3.02504E-20     9.76503E-02     6.44048E+07     1.01412E+08     2.13848E+09
     3.02838E+01     1.47941E+00     3.14159E+00     3.04733E-20     9.86099E-02     4.85136E+07     6.34697E+07     2.12775E+09
     3.02838E+01     1.48507E+00     3.14159E+00     3.06921E-20     9.93828E-02     3.02666E+07     3.86609E+07     2.11788E+09
     3.02838E+01     1.49038E+00     3.14159E+00     3.08136E-20     1.00015E-01     2.01708E+07     2.38279E+07     2.11126E+09
     3.02838E+01     1.49537E+00     3.14159E+00     3.08641E-20     1.00567E-01     1.04019E+07     1.53870E+07     2.10797E+09
     3.02838E+01     1.50004E+00     3.14159E+00     3.10071E-20     1.01058E-01     6.35842E+06     1.10590E+07     2.10288E+09
     3.02838E+01     1.50442E+00     3.14159E+00     3.10403E-20     1.01499E-01     4.67317E+06     8.38983E+06     2.09894E+09
     3.02838E+01     1.50854E+00     3.14159E+00     1.29696E-19     1.02503E-01    -2.97108E+07     6.54180E+06     2.02155E+09
     3.02838E+01     1.51240E+00     3.14159E+00     1.37213E-19     1.03985E-01    -2.94076E+07     5.00505E+06     2.01224E+09
     3.02838E+01     1.51602E+00     3.14159E+00     2.55474E-19     1.05952E-01    -1.03257E+07     4.07915E+06     1.99403E+09
     3.02838E+01     1.51941E+00     3.14159E+00     5.97418E-19     1.09836E-01    -5.47186E+06     3.78881E+06     1.98651E+09
     3.02838E+01     1.52260E+00     3.14159E+00     1.68936E-18     1.19306E-01    -2.40909E+06     3.34733E+06     1.98269E+09
     3.02838E+01     1.52558E+00     3.14159E+00     2.96315E-18     1.36929E-01     1.00742E+06     2.65210E+06     1.97953E+09
     3.02838E+01     1.52839E+00     3.14159E+00     5.09922E-18     1.64913E-01     1.77064E+06     1.83925E+06     1.97779E+09
     3.02838E+01     1.53102E+00     3.14159E+00     8.89402E-18     2.09422E-01     1.89020E+06     1.05695E+06     1.97622E+09
     3.02838E+01     1.53348E+00     3.14159E+00     1.50217E-17     2.79184E-01     1.23868E+06     4.79770E+05     1.97425E+09
     3.02838E+01     1.53580E+00     3.14159E+00     2.49435E-17     3.85957E-01     5.49425E+05     1.76545E+05     1.97158E+09
     3.02838E+01     1.53797E+00     3.14159E+00     3.93189E-17     5.43315E-01     5.60658E+04     7.66685E+04     1.96909E+09
     3.02838E+01     1.54000E+00     3.14159E+00     5.87005E-17     7.63887E-01    -3.50975E+05     8.96848E+04     1.96772E+09
     3.02838E+01     1.54191E+00     3.14159E+00     8.47522E-17     1.06053E+00    -6.17564E+05     1.50603E+05     1.96739E+09
     3.02838E+01     1.54371E+00     3.14159E+00     1.20187E-16     1.45063E+00    -6.99510E+05     2.25241E+05     1.96714E+09
     3.02838E+01     1.54539E+00     3.14159E+00     1.68568E-16     1.95654E+00    -7.16120E+05     2.86128E+05     1.96676E+09
     3.02838E+01     1.54696E+00     3.14159E+00     2.34611E-16     2.60732E+00    -5.85554E+05     3.17126E+05     1.96619E+09
     3.02838E+01     1.54844E+00     3.14159E+00     3.19834E-16     3.43238E+00    -1.41226E+05     2.94624E+05     1.96541E+09
     3.02838E+01     1.54983E+00     3.14159E+00     4.25216E-16     4.45555E+00     9.94179E+04     2.30943E+05     1.96448E+09
     3.02838E+01     1.55113E+00     3.14159E+00     5.51173E-16     5.69315E+00     1.97042E+03     1.76781E+05     1.96382E+09
     3.02838E+01     1.55235E+00     3.14159E+00     7.19829E-16     7.18220E+00    -6.23120E+05     1.80718E+05     1.96355E+09
     3.02838E+01     1.55350E+00     3.14159E+00     9.63683E-16     9.00636E+00    -9.76768E+05     2.41656E+05     1.96320E+09
     3.02838E+01     1.55457E+00     3.14159E+00     1.25781E-15     1.12338E+01    -8.19479E+05     2.99270E+05     1.96264E+09
     3.02838E+01     1.55558E+00     3.14159E+00     1.59644E-15     1.38848E+01    -5.84403E+05     3.22316E+05     1.96195E+09
     3.02838E+01     1.55653E+00     3.14159E+00     1.95600E-15     1.69415E+01     4.54808E+02     3.00648E+05     1.96130E+09
     3.02838E+01     1.55742E+00     3.14159E+00     2.34480E-15     2.03755E+01     2.66317E+05     2.43575E+05     1.96074E+09
     3.02838E+01     1.55825E+00     3.14159E+00     2.80426E-15     2.41907E+01     3.56245E+05     1.82627E+05     1.96027E+09
     3.02838E+01     1.55903E+00     3.14159E+00     3.36142E-15     2.84305E+01     3.29652E+05     1.30449E+05     1.95984E+09
     3.02838E+01     1.55976E+00     3.14159E+00     4.01978E-15     3.31448E+01     2.19556E+05     9.21782E+04     1.95940E+09
     3.02838E+01     1.56045E+00     3.14159E+00     4.75534E-15     3.83527E+01     1.48528E+05     6.67584E+04     1.95899E+09
     3.02838E+01     1.56109E+00     3.14159E+00     5.46997E-15     4.39958E+01     7.95428E+04     5.06505E+04     1.95859E+09
     3.02838E+01     1.56170E+00     3.14159E+00     6.17294E-15     4.99730E+01    -8.99733E+04     4.47565E+04     1.95849E+09
     3.02838E+01     1.56226E+00     3.14159E+00     6.93786E-15     5.62359E+01    -3.97357E+05     5.32358E+04     1.95866E+09
     3.02838E+01     1.56280E+00     3.14159E+00     7.75856E-15     6.27718E+01    -1.30327E+05     6.22000E+04     1.95870E+09
     3.02838E+01     1.56330E+00     3.14159E+00     8.57788E-15     6.95398E+01    -2.15959E+05     6.53890E+04     1.95870E+09
     3.02838E+01     1.56376E+00     3.14159E+00     9.47142E-15     7.65070E+01    -4.14492E+05     7.48850E+04     1.95869E+09
     3.02838E+01     1.56420E+00     3.14159E+00     1.04692E-14     8.36830E+01    -6.36490E+05     9.24353E+04     1.95848E+09
     3.02838E+01     1.56461E+00     3.14159E+00     1.16744E-14     9.11133E+01    -1.21730E+06     1.23535E+05     1.95830E+09
     3.02838E+01     1.56500E+00     3.14159E+00     1.30936E-14     9.88659E+01    -1.88162E+06     1.73292E+05     1.95827E+09
     3.02838E+01     1.56536E+00     3.14159E+00     1.44591E-14     1.06915E+02    -1.47142E+06     2.21211E+05     1.95827E+09
     3.02838E+01     1.56570E+00     3.14159E+00     1.55598E-14     1.15101E+02    -1.11311E+06     2.51290E+05     1.95820E+09
     3.02838E+01     1.56602E+00     3.14159E+00     1.64204E-14     1.23245E+02    -4.24863E+05     2.62630E+05     1.95765E+09
     3.02838E+01     1.56632E+00     3.14159E+00     1.74835E-14     1.31310E+02     2.60557E+05     2.52205E+05     1.95629E+09
     3.02838E+01     1.56660E+00     3.14159E+00     1.88009E-14     1.39373E+02     7.48201E+04     2.36023E+05     1.95492E+09
     3.02838E+01     1.56687E+00     3.14159E+00     2.06720E-14     1.47568E+02    -1.84051E+06     2.47214E+05     1.95438E+09
     3.02838E+01     1.56711E+00     3.14159E+00     2.27500E-14     1.55993E+02    -2.97266E+06     2.91600E+05     1.95462E+09
     3.02838E+01     1.56734E+00     3.14159E+00     2.46649E-14     1.64594E+02    -1.72425E+06     3.30364E+05     1.95465E+09
     3.02838E+01     1.56756E+00     3.14159E+00     2.61122E-14     1.73209E+02     4.78185E+05     3.30998E+05     1.95432E+09
     3.02838E+01     1.56777E+00     3.14159E+00     2.74732E-14     1.81713E+02     1.26849E+06     3.01638E+05     1.95370E+09
     3.02838E+01     1.56796E+00     3.14159E+00     2.87308E-14     1.90056E+02     1.25235E+06     2.66643E+05     1.95308E+09
     3.02838E+01     1.56814E+00     3.14159E+00     2.98719E-14     1.98194E+02     4.42097E+05     2.42642E+05     1.95276E+09
     3.02838E+01     1.56831E+00     3.14159E+00     3.08946E-14     2.06089E+02    -6.14418E+05     2.36516E+05     1.95260E+09
     3.02838E+01     1.56846E+00     3.14159E+00     3.19613E-14     2.13730E+02    -1.06754E+06     2.42107E+05     1.95231E+09
     3.02838E+01     1.56861E+00     3.14159E+00     3.30177E-14     2.21122E+02    -1.86890E+05     2.44713E+05     1.95180E+09
     3.02838E+01     1.56875E+00     3.14159E+00     3.42858E-14     2.28290E+02     6.13147E+05     2.36169E+05     1.95092E+09
     3.02838E+01     1.56888E+00     3.14159E+00     3.58994E-14     2.35288E+02     7.83439E+05     2.21766E+05     1.95003E+09
     3.02838E+01     1.56900E+00     3.14159E+00     3.77707E-14     2.42166E+02     8.77228E+05     2.06823E+05     1.94922E+09
     3.02838E+01     1.56912E+00     3.14159E+00     3.96749E-14     2.48937E+02     8.59520E+05     1.92549E+05     1.94855E+09
     3.02838E+01     1.56923E+00     3.14159E+00     4.14333E-14     2.55578E+02     8.96001E+05     1.79312E+05     1.94796E+09
     3.02838E+01     1.56933E+00     3.14159E+00     4.30813E-14     2.62059E+02     1.17013E+06     1.65463E+05     1.94739E+09
     3.02838E+01     1.56942E+00     3.14159E+00     4.47675E-14     2.68370E+02     1.77202E+06     1.48228E+05     1.94675E+09
     3.02838E+01     1.56951E+00     3.14159E+00     4.66037E-14     2.74519E+02     2.53603E+06     1.25732E+05     1.94597E+09
     3.02838E+01     1.56959E+00     3.14159E+00     4.86141E-14     2.80522E+02     3.15662E+06     9.86352E+04     1.94502E+09
     3.02838E+01     1.56967E+00     3.14159E+00     5.07663E-14     2.86393E+02     3.52098E+06     6.93384E+04     1.94398E+09
     3.02838E+01     1.56975E+00     3.14159E+00     5.30467E-14     2.92139E+02     3.78119E+06     3.96781E+04     1.94283E+09
     3.02838E+01     1.56981E+00     3.14159E+00     5.54971E-14     2.97768E+02     3.93514E+06     1.05942E+04     1.94156E+09
     3.02838E+01     1.56988E+00     3.14159E+00     5.81905E-14     3.03293E+02     3.95267E+06    -1.70327E+04     1.94015E+09
     3.02838E+01     1.56994E+00     3.14159E+00     6.12019E-14     3.08731E+02     3.77585E+06    -4.21908E+04     1.93861E+09
     3.02838E+01     1.57000E+00     3.14159E+00     6.45963E-14     3.14101E+02     3.35706E+06    -6.37207E+04     1.93697E+09
     3.02838E+01     1.57005E+00     3.14159E+00     6.84449E-14     3.19423E+02     2.69198E+06    -8.05935E+04     1.93525E+09
     3.02838E+01     1.57010E+00     3.14159E+00     7.28458E-14     3.24721E+02     1.82075E+06    -9.21131E+04     1.93352E+09
     3.02838E+01     1.57015E+00     3.14159E+00     7.78851E-14     3.30018E+02     8.46263E+05    -9.81074E+04     1.93185E+09
     3.02838E+01     1.57019E+00     3.14159E+00     8.35785E-14     3.35337E+02    -1.71754E+05    -9.88218E+04     1.93025E+09
     3.02838E+01     1.57023E+00     3.14159E+00     9.03162E-14     3.40707E+02    -1.69649E+06    -9.25965E+04     1.92885E+09
     3.02838E+01     1.57027E+00     3.14159E+00     9.83490E-14     3.46168E+02    -2.72159E+06    -7.90707E+04     1.92773E+09
     3.02838E+01     1.57031E+00     3.14159E+00     1.07606E-13     3.51756E+02    -3.23576E+06    -6.18103E+04     1.92675E+09
     3.02838E+01     1.57034E+00     3.14159E+00     1.18348E-13     3.57504E+02    -3.30372E+06    -4.42255E+04     1.92579E+09
     3.02838E+01     1.57037E+00     3.14159E+00     1.30638E-13     3.63443E+02    -3.03112E+06    -2.84258E+04     1.92475E+09
     3.02838E+01     1.57040E+00     3.14159E+00     1.44082E-13     3.69587E+02    -2.49245E+06    -1.56766E+04     1.92355E+09
     3.02838E+01     1.57043E+00     3.14159E+00     1.57917E-13     3.75920E+02    -1.82729E+06    -6.49849E+03     1.92216E+09
     3.02838E+01     1.57046E+00     3.14159E+00     1.71610E-13     3.82400E+02    -1.21777E+06    -6.64415E+02     1.92068E+09
     3.02838E+01     1.57048E+00     3.14159E+00     1.85720E-13     3.88990E+02    -8.06952E+05     2.69325E+03     1.91926E+09
     3.02838E+01     1.57051E+00     3.14159E+00     2.01929E-13     3.95694E+02    -6.30092E+05     4.69823E+03     1.91802E+09
     3.02838E+01     1.57053E+00     3.14159E+00     2.21679E-13     4.02565E+02    -5.99010E+05     6.18250E+03     1.91697E+09
     3.02838E+01     1.57055E+00     3.14159E+00     2.44572E-13     4.09657E+02    -5.71744E+05     7.45014E+03     1.91604E+09
     3.02838E+01     1.57057E+00     3.14159E+00     2.66368E-13     4.16945E+02    -3.39340E+05     8.22124E+03     1.91532E+09
     3.02838E+01     1.57058E+00     3.14159E+00     2.79342E-13     4.24246E+02     8.77089E+04     8.02173E+03     1.91470E+09
     3.02838E+01     1.57060E+00     3.14159E+00     2.83980E-13     4.31314E+02     2.93198E+05     7.11834E+03     1.91430E+09
     3.02838E+01     1.57062E+00     3.14159E+00     2.85245E-13     4.38012E+02     3.94260E+05     6.01579E+03     1.91430E+09
     3.02838E+01     1.57063E+00     3.14159E+00     2.81204E-13     4.44263E+02     3.74488E+05     4.91016E+03     1.91421E+09
     3.02838E+01     1.57065E+00     3.14159E+00     2.80296E-13     4.50075E+02     3.37424E+05     3.94619E+03     1.91397E+09
     3.02838E+01     1.57066E+00     3.14159E+00     2.86034E-13     4.55573E+02     1.81094E+05     3.17979E+03     1.91317E+09
     3.02838E+01     1.57067E+00     3.14159E+00     3.11324E-13     4.61012E+02    -1.40666E+05     2.82236E+03     1.91252E+09
     3.02838E+01     1.57068E+00     3.14159E+00     3.50125E-13     4.66661E+02    -2.21485E+05     2.81989E+03     1.91235E+09
     3.02838E+01     1.57069E+00     3.14159E+00     3.80197E-13     4.72510E+02    -1.05879E+05     2.78479E+03     1.91190E+09
     3.02838E+01     1.57070E+00     3.14159E+00     3.98929E-13     4.78364E+02     4.77363E+04     2.54698E+03     1.91152E+09
     3.02838E+01     1.57071E+00     3.14159E+00     4.14140E-13     4.84093E+02     2.81702E+05     2.10365E+03     1.91134E+09
     3.02838E+01     1.57072E+00     3.14159E+00     4.48170E-13     4.89792E+02     4.28734E+05     1.50781E+03     1.91154E+09
     3.02838E+01     1.57073E+00     3.14159E+00     5.13291E-13     4.95753E+02     2.72073E+05     9.54141E+02     1.91225E+09
     3.02838E+01     1.57074E+00     3.14159E+00     5.85043E-13     5.02140E+02     2.33568E+04     6.07940E+02     1.91284E+09
     3.02838E+01     1.57075E+00     3.14159E+00     6.28955E-13     5.08761E+02    -6.29047E+05     7.56578E+02     1.91180E+09
     3.02838E+01     1.57075E+00     3.14159E+00     6.61511E-13     5.15363E+02    -1.52264E+04     9.33940E+02     1.91055E+09
     3.02838E+01     1.57076E+00     3.14159E+00     7.31953E-13     5.22050E+02     2.74571E+05     6.67789E+02     1.91150E+09
     3.02838E+01     1.57077E+00     3.14159E+00     7.95676E-13     5.28927E+02    -3.93534E+05     5.95603E+02     1.91086E+09
     3.02838E+01     1.57077E+00     3.14159E+00     7.74416E-13     5.35556E+02    -1.14948E+06     1.14046E+03     1.90578E+09
     3.02838E+01     1.57078E+00     3.14159E+00     7.82727E-13     5.41723E+02     6.44869E+05     1.31335E+03     1.90434E+09
     3.02838E+01     1.57078E+00     3.14159E+00     8.58086E-13     5.47819E+02     2.31745E+05     9.18409E+02     1.90376E+09
     3.02838E+01     1.57079E+00     3.14159E+00     2.60687E-12     5.59893E+02     9.65364E+04     8.08771E+02     1.90631E+09
     3.02838E+01     1.57079E+00     3.14159E+00     1.11796E-10     9.33856E+02     1.61837E+06     3.32805E+02     1.91897E+09
     3.02838E+01     1.57079E+00     3.14159E+00     6.26564E-10     3.19785E+03     8.87190E+02    -1.17295E+02     1.92598E+09
     3.02838E+01     1.57080E+00     3.14159E+00     9.99999E-10     7.87620E+03     1.56213E+03    -3.49603E+01     1.92606E+09
     3.08612E+01     4.86288E-02     3.14159E+00     2.21206E-20     5.53172E-02    -4.26602E+09    -8.99900E+07     4.53342E+07
     3.08612E+01     1.42876E-01     3.14159E+00     1.67760E-20     2.80410E-02    -4.59307E+09    -2.00001E+08     5.89504E+07
     3.08612E+01     2.31287E-01     3.14159E+00     8.93632E-21     9.08255E-03    -4.84314E+09    -2.56411E+07     9.75712E+07
     3.08612E+01     3.14225E-01     3.14159E+00     6.92105E-21     5.65712E-03    -4.90326E+09     2.93536E+08     1.37174E+08
     3.08612E+01     3.92028E-01     3.14159E+00     6.14966E-21     4.43994E-03    -4.90199E+09     5.75774E+08     1.82758E+08
     3.08612E+01     4.65013E-01     3.14159E+00     5.89513E-21     3.95506E-03    -4.87338E+09     8.60407E+08     2.38096E+08
     3.08612E+01     5.33480E-01     3.14159E+00     5.54125E-21     3.45168E-03    -4.83173E+09     1.07087E+09     3.00287E+08
     3.08612E+01     5.97708E-01     3.14159E+00     5.60179E-21     3.50722E-03    -4.78623E+09     1.21705E+09     3.72067E+08
     3.08612E+01     6.57959E-01     3.14159E+00     5.92007E-21     3.85364E-03    -4.73054E+09     1.33544E+09     4.57412E+08
     3.08612E+01     7.14480E-01     3.14159E+00     6.36777E-21     4.37650E-03    -4.64662E+09     1.45868E+09     5.62349E+08
     3.08612E+01     7.67502E-01     3.14159E+00     6.63282E-21     4.71879E-03    -4.52127E+09     1.60546E+09     6.86580E+08
     3.08612E+01     8.17240E-01     3.14159E+00     6.64672E-21     4.78591E-03    -4.35588E+09     1.76556E+09     8.26139E+08
     3.08612E+01     8.63899E-01     3.14159E+00     6.68034E-21     4.87263E-03    -4.15355E+09     1.92227E+09     9.77427E+08
     3.08612E+01     9.07670E-01     3.14159E+00     6.92123E-21     5.23767E-03    -3.91252E+09     2.03461E+09     1.13760E+09
     3.08612E+01     9.48730E-01     3.14159E+00     7.35856E-21     5.89067E-03    -3.63475E+09     2.06726E+09     1.30273E+09
     3.08612E+01     9.87248E-01     3.14159E+00     7.97626E-21     6.93332E-03    -3.33029E+09     2.03272E+09     1.47075E+09
     3.08612E+01     1.02338E+00     3.14159E+00     8.89467E-21     8.71194E-03    -3.00560E+09     1.93877E+09     1.63892E+09
     3.08612E+01     1.05728E+00     3.14159E+00     1.00534E-20     1.13306E-02    -2.66384E+09     1.79330E+09     1.79914E+09
     3.08612E+01     1.08908E+00     3.14159E+00     1.12677E-20     1.45604E-02    -2.31279E+09     1.62354E+09     1.93985E+09
     3.08612E+01     1.11890E+00     3.14159E+00     1.24582E-20     1.81912E-02    -1.96725E+09     1.44391E+09     2.05150E+09
     3.08612E+01     1.14689E+00     3.14159E+00     1.38239E-20     2.25325E-02    -1.63662E+09     1.24737E+09     2.13112E+09
     3.08612E+01     1.17314E+00     3.14159E+00     1.57139E-20     2.91809E-02    -1.30608E+09     1.03126E+09     2.18641E+09
     3.08612E+01     1.19776E+00     3.14159E+00     1.79677E-20     3.81524E-02    -9.56211E+08     8.35429E+08     2.22363E+09
     3.08612E+01     1.22086E+00     3.14159E+00     1.94389E-20     4.51638E-02    -6.46501E+08     7.03107E+08     2.22147E+09
     3.08612E+01     1.24253E+00     3.14159E+00     2.02067E-20     4.94293E-02    -4.10245E+08     6.14922E+08     2.21751E+09
     3.08612E+01     1.26286E+00     3.14159E+00     2.08642E-20     5.31285E-02    -2.40659E+08     5.27823E+08     2.21188E+09
     3.08612E+01     1.28193E+00     3.14159E+00     2.15727E-20     5.70417E-02    -1.28409E+08     4.31061E+08     2.20496E+09
     3.08612E+01     1.29982E+00     3.14159E+00     2.22631E-20     6.09962E-02    -6.67107E+07     3.36759E+08     2.19779E+09
     3.08612E+01     1.31660E+00     3.14159E+00     2.29706E-20     6.46449E-02    -2.31373E+07     2.49848E+08     2.19107E+09
     3.08612E+01     1.33234E+00     3.14159E+00     2.36601E-20     6.81817E-02     1.74038E+07     1.62105E+08     2.18478E+09
     3.08612E+01     1.34711E+00     3.14159E+00     2.43790E-20     7.17637E-02     2.78281E+07     7.64324E+07     2.17882E+09
     3.08612E+01     1.36096E+00     3.14159E+00     2.50712E-20     7.49138E-02    -1.09632E+07     1.88948E+07     2.17308E+09
     3.08612E+01     1.37396E+00     3.14159E+00     2.65171E-20     7.69476E-02    -5.52827E+07     5.57330E+06     2.17742E+09
     3.08612E+01     1.38615E+00     3.14159E+00     2.72401E-20     7.82162E-02    -7.33892E+07     2.51844E+07     2.18020E+09
     3.08612E+01     1.39758E+00     3.14159E+00     2.71777E-20     7.89521E-02    -6.98525E+07     6.36633E+07     2.17941E+09
     3.08612E+01     1.40831E+00     3.14159E+00     2.72551E-20     7.98876E-02     1.41813E+06     1.00306E+08     2.17622E+09
     3.08612E+01     1.41837E+00     3.14159E+00     2.76123E-20     8.23915E-02     1.00627E+08     1.11883E+08     2.16994E+09
     3.08612E+01     1.42781E+00     3.14159E+00     2.81296E-20     8.58336E-02     1.75028E+08     9.79671E+07     2.16259E+09
     3.08612E+01     1.43667E+00     3.14159E+00     2.87118E-20     8.95679E-02     2.20331E+08     7.15236E+07     2.15528E+09
     3.08612E+01     1.44498E+00     3.14159E+00     2.92503E-20     9.28878E-02     2.28700E+08     3.90906E+07     2.14790E+09
     3.08612E+01     1.45277E+00     3.14159E+00     2.97151E-20     9.56293E-02     2.13628E+08     7.51799E+06     2.14028E+09
     3.08612E+01     1.46008E+00     3.14159E+00     3.01393E-20     9.77179E-02     1.86600E+08    -1.65348E+07     2.13196E+09
     3.08612E+01     1.46694E+00     3.14159E+00     3.07060E-20     9.92867E-02     1.54126E+08    -3.08593E+07     2.12122E+09
     3.08612E+01     1.47338E+00     3.14159E+00     3.22663E-20     1.00488E-01     1.22145E+08    -3.43555E+07     2.10434E+09
     3.08612E+01     1.47941E+00     3.14159E+00     3.83649E-20     1.01489E-01     8.08697E+07    -2.92947E+07     2.07631E+09
     3.08612E+01     1.48507E+00     3.14159E+00     5.66067E-20     1.02548E-01     4.35473E+07    -2.02233E+07     2.03908E+09
     3.08612E+01     1.49038E+00     3.14159E+00     9.81534E-20     1.03985E-01     2.45672E+07    -1.08562E+07     2.00513E+09
     3.08612E+01     1.49537E+00     3.14159E+00     1.94650E-19     1.06354E-01     4.47358E+06    -2.31141E+06     1.97958E+09
     3.08612E+01     1.50004E+00     3.14159E+00     3.21301E-19     1.10065E-01     5.05373E+06     3.50277E+06     1.97033E+09
     3.08612E+01     1.50442E+00     3.14159E+00     5.79113E-19     1.15934E-01     2.84582E+06     6.71147E+06     1.96378E+09
     3.08612E+01     1.50854E+00     3.14159E+00     1.19175E-18     1.26383E-01    -1.79025E+07     6.56566E+06     1.95821E+09
     3.08612E+01     1.51240E+00     3.14159E+00     2.18778E-18     1.44482E-01    -1.72563E+07     3.53448E+06     1.95320E+09
     3.08612E+01     1.51602E+00     3.14159E+00     4.54613E-18     1.77403E-01    -5.57890E+06     1.44384E+06     1.94937E+09
     3.08612E+01     1.51941E+00     3.14159E+00     9.01828E-18     2.37793E-01    -2.59456E+06     4.16587E+05     1.94593E+09
     3.08612E+01     1.52260E+00     3.14159E+00     1.67979E-17     3.42523E-01    -2.17155E+05    -2.80313E+05     1.94272E+09
     3.08612E+01     1.52558E+00     3.14159E+00     3.03921E-17     5.17166E-01     2.15293E+06    -6.70235E+05     1.93961E+09
     3.08612E+01     1.52839E+00     3.14159E+00     5.29550E-17     7.98365E-01     2.72799E+06    -7.09293E+05     1.93693E+09
     3.08612E+01     1.53102E+00     3.14159E+00     8.96471E-17     1.23782E+00     2.32768E+06    -5.55656E+05     1.93463E+09
     3.08612E+01     1.53348E+00     3.14159E+00     1.47545E-16     1.90629E+00     1.11738E+06    -2.90452E+05     1.93273E+09
     3.08612E+01     1.53580E+00     3.14159E+00     2.36123E-16     2.89685E+00     2.28177E+05    -3.49295E+04     1.93124E+09
     3.08612E+01     1.53797E+00     3.14159E+00     3.70272E-16     4.33225E+00    -2.01919E+05     1.09472E+05     1.93005E+09
     3.08612E+01     1.54000E+00     3.14159E+00     5.65124E-16     6.36466E+00    -3.46254E+05     1.48168E+05     1.92914E+09
     3.08612E+01     1.54191E+00     3.14159E+00     8.33868E-16     9.15605E+00    -4.40233E+05     1.34759E+05     1.92846E+09
     3.08612E+01     1.54371E+00     3.14159E+00     1.19922E-15     1.28840E+01    -4.99987E+05     1.07996E+05     1.92786E+09
     3.08612E+01     1.54539E+00     3.14159E+00     1.68720E-15     1.77544E+01    -5.29032E+05     8.55231E+04     1.92729E+09
     3.08612E+01     1.54696E+00     3.14159E+00     2.32515E-15     2.39895E+01    -4.47371E+05     7.05922E+04     1.92677E+09
     3.08612E+01     1.54844E+00     3.14159E+00     3.14685E-15     3.18285E+01    -2.53719E+05     7.45116E+04     1.92630E+09
     3.08612E+01     1.54983E+00     3.14159E+00     4.18576E-15     4.15190E+01    -1.61558E+05     1.07536E+05     1.92587E+09
     3.08612E+01     1.55113E+00     3.14159E+00     5.46323E-15     5.32946E+01    -2.68057E+05     1.48081E+05     1.92551E+09
     3.08612E+01     1.55235E+00     3.14159E+00     6.96752E-15     6.73157E+01    -4.14545E+05     1.51471E+05     1.92526E+09
     3.08612E+01     1.55350E+00     3.14159E+00     8.70283E-15     8.36610E+01    -4.15448E+05     1.03623E+05     1.92504E+09