 TITLE= "ZEUSMP/2 FIELD DATA AT TIME:    4.99097007503063      yr "
 VARIABLES= "X","Y","Z","rho","e","V1","V2","V3"
 ZONE I=  100 , J=  160 , K=    1 , F=POINT
     3.02838E+01     4.86288E-02     3.14159E+00     2.32663E-21     1.82942E-03    -4.95829E+09     1.35986E+08     5.79687E+03
     3.02838E+01     1.42876E-01     3.14159E+00     2.33067E-21     1.82246E-03    -4.94641E+09     3.99504E+08     4.52189E+06
     3.02838E+01     2.31287E-01     3.14159E+00     2.38515E-21     1.88419E-03    -4.92239E+09     6.37992E+08     1.50716E+07
     3.02838E+01     3.14225E-01     3.14159E+00     2.51885E-21     2.04700E-03    -4.88934E+09     8.27199E+08     2.94617E+07
     3.02838E+01     3.92028E-01     3.14159E+00     3.11833E-21     2.88958E-03    -4.84621E+09     8.69288E+08     4.86749E+07
     3.02838E+01     4.65013E-01     3.14159E+00     4.25562E-21     4.79585E-03    -4.79651E+09     7.55150E+08     7.57914E+07
     3.02838E+01     5.33480E-01     3.14159E+00     5.89515E-21     8.13212E-03    -4.74111E+09     6.29626E+08     1.14993E+08
     3.02838E+01     5.97708E-01     3.14159E+00     7.04628E-21     1.07110E-02    -4.70430E+09     6.12644E+08     1.63470E+08
     3.02838E+01     6.57959E-01     3.14159E+00     7.85277E-21     1.20007E-02    -4.68164E+09     7.07506E+08     2.16925E+08
     3.02838E+01     7.14480E-01     3.14159E+00     8.36752E-21     1.25377E-02    -4.65909E+09     8.44532E+08     2.73515E+08
     3.02838E+01     7.67502E-01     3.14159E+00     8.90838E-21     1.29374E-02    -4.63244E+09     9.81749E+08     3.35599E+08
     3.02838E+01     8.17240E-01     3.14159E+00     9.48241E-21     1.34178E-02    -4.59858E+09     1.10521E+09     4.06575E+08
     3.02838E+01     8.63899E-01     3.14159E+00     9.95977E-21     1.38069E-02    -4.55140E+09     1.22431E+09     4.89719E+08
     3.02838E+01     9.07670E-01     3.14159E+00     1.02667E-20     1.39570E-02    -4.48410E+09     1.34681E+09     5.86537E+08
     3.02838E+01     9.48730E-01     3.14159E+00     1.04432E-20     1.39355E-02    -4.39177E+09     1.46719E+09     6.96357E+08
     3.02838E+01     9.87248E-01     3.14159E+00     1.05600E-20     1.39231E-02    -4.27426E+09     1.57457E+09     8.17708E+08
     3.02838E+01     1.02338E+00     3.14159E+00     1.07712E-20     1.42331E-02    -4.12844E+09     1.66095E+09     9.49807E+08
     3.02838E+01     1.05728E+00     3.14159E+00     1.11481E-20     1.49284E-02    -3.94856E+09     1.71678E+09     1.09110E+09
     3.02838E+01     1.08908E+00     3.14159E+00     1.15505E-20     1.57816E-02    -3.73363E+09     1.74209E+09     1.23842E+09
     3.02838E+01     1.11890E+00     3.14159E+00     1.18550E-20     1.65316E-02    -3.48976E+09     1.75184E+09     1.38764E+09
     3.02838E+01     1.14689E+00     3.14159E+00     1.20391E-20     1.71235E-02    -3.22285E+09     1.75399E+09     1.53275E+09
     3.02838E+01     1.17314E+00     3.14159E+00     1.21452E-20     1.76264E-02    -2.94061E+09     1.74370E+09     1.66783E+09
     3.02838E+01     1.19776E+00     3.14159E+00     1.23451E-20     1.84220E-02    -2.65133E+09     1.70699E+09     1.78987E+09
     3.02838E+01     1.22086E+00     3.14159E+00     1.28141E-20     2.00067E-02    -2.36118E+09     1.62480E+09     1.89874E+09
     3.02838E+01     1.24253E+00     3.14159E+00     1.36880E-20     2.28879E-02    -2.07016E+09     1.48876E+09     1.99523E+09
     3.02838E+01     1.26286E+00     3.14159E+00     1.49825E-20     2.73605E-02    -1.76931E+09     1.31056E+09     2.07904E+09
     3.02838E+01     1.28193E+00     3.14159E+00     1.65576E-20     3.32168E-02    -1.44575E+09     1.12436E+09     2.14815E+09
     3.02838E+01     1.29982E+00     3.14159E+00     1.79607E-20     3.87499E-02    -1.10491E+09     9.85471E+08     2.20039E+09
     3.02838E+01     1.31660E+00     3.14159E+00     1.83578E-20     4.08255E-02    -8.05508E+08     9.26968E+08     2.23540E+09
     3.02838E+01     1.33234E+00     3.14159E+00     1.82705E-20     4.09981E-02    -5.72173E+08     9.20951E+08     2.25559E+09
     3.02838E+01     1.34711E+00     3.14159E+00     1.81880E-20     4.09816E-02    -3.99217E+08     9.26638E+08     2.26499E+09
     3.02838E+01     1.36096E+00     3.14159E+00     1.82333E-20     4.13182E-02    -2.74477E+08     9.28907E+08     2.27010E+09
     3.02838E+01     1.37396E+00     3.14159E+00     1.83601E-20     4.19631E-02    -1.90177E+08     9.24875E+08     2.26984E+09
     3.02838E+01     1.38615E+00     3.14159E+00     1.85949E-20     4.30155E-02    -1.30408E+08     9.14314E+08     2.26864E+09
     3.02838E+01     1.39758E+00     3.14159E+00     1.89096E-20     4.43799E-02    -7.82398E+07     8.98436E+08     2.26647E+09
     3.02838E+01     1.40831E+00     3.14159E+00     1.93030E-20     4.60043E-02    -1.49824E+07     8.79143E+08     2.26311E+09
     3.02838E+01     1.41837E+00     3.14159E+00     1.97198E-20     4.77020E-02     3.19896E+07     8.41270E+08     2.25888E+09
     3.02838E+01     1.42781E+00     3.14159E+00     2.03101E-20     5.01582E-02     7.34306E+07     7.63726E+08     2.25386E+09
     3.02838E+01     1.43667E+00     3.14159E+00     2.10659E-20     5.34281E-02     1.03288E+08     6.52177E+08     2.24805E+09
     3.02838E+01     1.44498E+00     3.14159E+00     2.18098E-20     5.67821E-02     1.16100E+08     5.30442E+08     2.24156E+09
     3.02838E+01     1.45277E+00     3.14159E+00     2.24265E-20     5.96561E-02     1.12487E+08     4.18251E+08     2.23464E+09
     3.02838E+01     1.46008E+00     3.14159E+00     2.28819E-20     6.18406E-02     1.02803E+08     3.23428E+08     2.22741E+09
     3.02838E+01     1.46694E+00     3.14159E+00     2.32146E-20     6.34701E-02     9.07217E+07     2.45854E+08     2.21994E+09
     3.02838E+01     1.47338E+00     3.14159E+00     2.34460E-20     6.46515E-02     8.68623E+07     1.80589E+08     2.21154E+09
     3.02838E+01     1.47941E+00     3.14159E+00     2.36262E-20     6.56125E-02     7.75683E+07     1.24627E+08     2.20161E+09
     3.02838E+01     1.48507E+00     3.14159E+00     2.37673E-20     6.63939E-02     5.66079E+07     8.19080E+07     2.19077E+09
     3.02838E+01     1.49038E+00     3.14159E+00     2.38537E-20     6.69808E-02     4.06629E+07     5.29429E+07     2.17892E+09
     3.02838E+01     1.49537E+00     3.14159E+00     2.38896E-20     6.74585E-02     2.84717E+07     3.36568E+07     2.16628E+09
     3.02838E+01     1.50004E+00     3.14159E+00     2.38762E-20     6.78652E-02     1.89345E+07     2.12241E+07     2.15342E+09
     3.02838E+01     1.50442E+00     3.14159E+00     2.38280E-20     6.82207E-02     1.13460E+07     1.37305E+07     2.14049E+09
     3.02838E+01     1.50854E+00     3.14159E+00     2.37452E-20     6.85370E-02     5.95011E+06     9.66510E+06     2.14029E+09
     3.02838E+01     1.51240E+00     3.14159E+00     2.36161E-20     6.88221E-02     1.21483E+06     8.00977E+06     2.14266E+09
     3.02838E+01     1.51602E+00     3.14159E+00     2.38217E-20     6.90803E-02     7.47784E+06     6.22148E+06     2.13505E+09
     3.02838E+01     1.51941E+00     3.14159E+00     1.84748E-19     7.00752E-02     1.30988E+06     5.66550E+06     2.01916E+09
     3.02838E+01     1.52260E+00     3.14159E+00     1.31553E-18     7.64330E-02     3.79255E+06     4.93678E+06     1.98984E+09
     3.02838E+01     1.52558E+00     3.14159E+00     2.74254E-18     9.21268E-02     4.19609E+06     2.49282E+06     1.98466E+09
     3.02838E+01     1.52839E+00     3.14159E+00     4.11859E-18     1.16222E-01     2.48825E+06     1.43346E+06     1.98124E+09
     3.02838E+01     1.53102E+00     3.14159E+00     6.06972E-18     1.48865E-01     1.00186E+06     1.07660E+06     1.97874E+09
     3.02838E+01     1.53348E+00     3.14159E+00     9.34218E-18     1.94121E-01     2.17968E+05     9.90743E+05     1.97657E+09
     3.02838E+01     1.53580E+00     3.14159E+00     1.45618E-17     2.58392E-01     7.77503E+04     9.99284E+05     1.97401E+09
     3.02838E+01     1.53797E+00     3.14159E+00     2.20591E-17     3.48608E-01     7.18062E+04     1.02044E+06     1.97168E+09
     3.02838E+01     1.54000E+00     3.14159E+00     3.38989E-17     4.75351E-01     1.14436E+05     1.01515E+06     1.97022E+09
     3.02838E+01     1.54191E+00     3.14159E+00     5.10745E-17     6.51981E-01     3.69625E+05     9.92749E+05     1.96938E+09
     3.02838E+01     1.54371E+00     3.14159E+00     7.37583E-17     8.90379E-01     8.40501E+05     9.32977E+05     1.96888E+09
     3.02838E+01     1.54539E+00     3.14159E+00     1.03087E-16     1.20130E+00     1.10892E+06     8.20187E+05     1.96837E+09
     3.02838E+01     1.54696E+00     3.14159E+00     1.44521E-16     1.60207E+00     1.14116E+06     7.05612E+05     1.96755E+09
     3.02838E+01     1.54844E+00     3.14159E+00     2.02981E-16     2.12059E+00     9.93160E+05     6.21156E+05     1.96634E+09
     3.02838E+01     1.54983E+00     3.14159E+00     2.76510E-16     2.77986E+00     7.47189E+05     5.71417E+05     1.96510E+09
     3.02838E+01     1.55113E+00     3.14159E+00     3.57149E-16     3.58465E+00     5.43746E+05     5.49072E+05     1.96424E+09
     3.02838E+01     1.55235E+00     3.14159E+00     4.67022E-16     4.55175E+00     5.28638E+05     5.32053E+05     1.96353E+09
     3.02838E+01     1.55350E+00     3.14159E+00     6.28057E-16     5.74076E+00     7.65789E+05     4.99899E+05     1.96271E+09
     3.02838E+01     1.55457E+00     3.14159E+00     8.40491E-16     7.21464E+00     1.14643E+06     4.34813E+05     1.96174E+09
     3.02838E+01     1.55558E+00     3.14159E+00     1.08453E-15     9.00339E+00     1.32569E+06     3.47138E+05     1.96052E+09
     3.02838E+01     1.55653E+00     3.14159E+00     1.35552E-15     1.11035E+01     1.22513E+06     2.65941E+05     1.95931E+09
     3.02838E+01     1.55742E+00     3.14159E+00     1.65565E-15     1.35055E+01     9.40929E+05     2.10758E+05     1.95829E+09
     3.02838E+01     1.55825E+00     3.14159E+00     1.97723E-15     1.61929E+01     4.77370E+05     1.91253E+05     1.95746E+09
     3.02838E+01     1.55903E+00     3.14159E+00     2.32136E-15     1.91436E+01     8.94875E+04     2.05636E+05     1.95695E+09
     3.02838E+01     1.55976E+00     3.14159E+00     2.67599E-15     2.23301E+01    -1.88974E+05     2.41547E+05     1.95680E+09
     3.02838E+01     1.56045E+00     3.14159E+00     3.07700E-15     2.57386E+01    -3.97561E+05     2.86227E+05     1.95693E+09
     3.02838E+01     1.56109E+00     3.14159E+00     3.59297E-15     2.94142E+01    -1.12949E+05     3.19527E+05     1.95707E+09
     3.02838E+01     1.56170E+00     3.14159E+00     4.08578E-15     3.33516E+01     8.43995E+04     3.31375E+05     1.95688E+09
     3.02838E+01     1.56226E+00     3.14159E+00     4.68494E-15     3.75373E+01     7.10988E+04     3.35360E+05     1.95650E+09
     3.02838E+01     1.56280E+00     3.14159E+00     5.44599E-15     4.20377E+01     2.90432E+05     3.32740E+05     1.95599E+09
     3.02838E+01     1.56330E+00     3.14159E+00     6.30933E-15     4.69031E+01     7.16081E+05     3.12361E+05     1.95571E+09
     3.02838E+01     1.56376E+00     3.14159E+00     7.21512E-15     5.21197E+01     1.10650E+06     2.73483E+05     1.95548E+09
     3.02838E+01     1.56420E+00     3.14159E+00     8.26399E-15     5.76859E+01     1.13095E+06     2.28774E+05     1.95550E+09
     3.02838E+01     1.56461E+00     3.14159E+00     9.25477E-15     6.35606E+01     1.24633E+06     1.85592E+05     1.95506E+09
     3.02838E+01     1.56500E+00     3.14159E+00     1.01226E-14     6.96233E+01     1.28044E+06     1.43991E+05     1.95447E+09
     3.02838E+01     1.56536E+00     3.14159E+00     1.11334E-14     7.58281E+01     1.24614E+06     1.07022E+05     1.95433E+09
     3.02838E+01     1.56570E+00     3.14159E+00     1.24184E-14     8.22449E+01     1.38388E+06     7.19153E+04     1.95416E+09
     3.02838E+01     1.56602E+00     3.14159E+00     1.38125E-14     8.89189E+01     1.85365E+06     2.96886E+04     1.95331E+09
     3.02838E+01     1.56632E+00     3.14159E+00     1.52200E-14     9.58174E+01     2.06862E+06    -1.96188E+04     1.95201E+09
     3.02838E+01     1.56660E+00     3.14159E+00     1.65753E-14     1.02875E+02     1.94272E+06    -6.56196E+04     1.95088E+09
     3.02838E+01     1.56687E+00     3.14159E+00     1.78564E-14     1.10015E+02     1.66028E+06    -1.01521E+05     1.95037E+09
     3.02838E+01     1.56711E+00     3.14159E+00     1.90098E-14     1.17162E+02     1.62054E+06    -1.29820E+05     1.95027E+09
     3.02838E+01     1.56734E+00     3.14159E+00     2.00507E-14     1.24241E+02     1.88159E+06    -1.58659E+05     1.95022E+09
     3.02838E+01     1.56756E+00     3.14159E+00     2.08524E-14     1.31171E+02     1.99774E+06    -1.89754E+05     1.94994E+09
     3.02838E+01     1.56777E+00     3.14159E+00     2.14720E-14     1.37878E+02     1.63247E+06    -2.15590E+05     1.94970E+09
     3.02838E+01     1.56796E+00     3.14159E+00     2.22065E-14     1.44353E+02     1.12463E+06    -2.31037E+05     1.94977E+09
     3.02838E+01     1.56814E+00     3.14159E+00     2.32103E-14     1.50650E+02     5.46134E+05    -2.34833E+05     1.95001E+09
     3.02838E+01     1.56831E+00     3.14159E+00     2.49299E-14     1.56897E+02     2.02306E+04    -2.27795E+05     1.95015E+09
     3.02838E+01     1.56846E+00     3.14159E+00     2.74131E-14     1.63254E+02    -4.18040E+05    -2.14294E+05     1.94992E+09
     3.02838E+01     1.56861E+00     3.14159E+00     2.95987E-14     1.69734E+02     3.95469E+04    -2.02071E+05     1.94915E+09
     3.02838E+01     1.56875E+00     3.14159E+00     3.16737E-14     1.76253E+02     7.38507E+05    -1.98839E+05     1.94784E+09
     3.02838E+01     1.56888E+00     3.14159E+00     3.38672E-14     1.82781E+02     1.76483E+06    -2.08069E+05     1.94604E+09
     3.02838E+01     1.56900E+00     3.14159E+00     3.61622E-14     1.89311E+02     2.51686E+06    -2.28523E+05     1.94400E+09
     3.02838E+01     1.56912E+00     3.14159E+00     3.85007E-14     1.95830E+02     2.72196E+06    -2.53584E+05     1.94192E+09
     3.02838E+01     1.56923E+00     3.14159E+00     4.09456E-14     2.02326E+02     2.37190E+06    -2.76030E+05     1.93999E+09
     3.02838E+01     1.56933E+00     3.14159E+00     4.35621E-14     2.08797E+02     1.48392E+06    -2.90103E+05     1.93830E+09
     3.02838E+01     1.56942E+00     3.14159E+00     4.63763E-14     2.15247E+02     1.24439E+05    -2.91654E+05     1.93694E+09
     3.02838E+01     1.56951E+00     3.14159E+00     4.94441E-14     2.21684E+02    -3.12463E+06    -2.75059E+05     1.93620E+09
     3.02838E+01     1.56959E+00     3.14159E+00     5.27746E-14     2.28116E+02    -6.61806E+06    -2.37463E+05     1.93619E+09
     3.02838E+01     1.56967E+00     3.14159E+00     5.62863E-14     2.34544E+02    -9.59443E+06    -1.83033E+05     1.93670E+09
     3.02838E+01     1.56975E+00     3.14159E+00     5.99453E-14     2.40962E+02    -1.16343E+07    -1.18541E+05     1.93749E+09
     3.02838E+01     1.56981E+00     3.14159E+00     6.37772E-14     2.47362E+02    -1.25272E+07    -5.11846E+04     1.93830E+09
     3.02838E+01     1.56988E+00     3.14159E+00     6.78378E-14     2.53741E+02    -1.24226E+07     1.31009E+04     1.93894E+09
     3.02838E+01     1.56994E+00     3.14159E+00     7.21851E-14     2.60101E+02    -1.14389E+07     7.01347E+04     1.93933E+09
     3.02838E+01     1.57000E+00     3.14159E+00     7.68542E-14     2.66447E+02    -9.74228E+06     1.17132E+05     1.93944E+09
     3.02838E+01     1.57005E+00     3.14159E+00     8.18913E-14     2.72783E+02    -7.55840E+06     1.52372E+05     1.93926E+09
     3.02838E+01     1.57010E+00     3.14159E+00     8.73323E-14     2.79116E+02    -5.07389E+06     1.75448E+05     1.93887E+09
     3.02838E+01     1.57015E+00     3.14159E+00     9.31768E-14     2.85451E+02    -2.57022E+06     1.87452E+05     1.93826E+09
     3.02838E+01     1.57019E+00     3.14159E+00     9.94914E-14     2.91791E+02    -3.06861E+05     1.90317E+05     1.93747E+09
     3.02838E+01     1.57023E+00     3.14159E+00     1.06404E-13     2.98145E+02     8.06463E+05     1.86983E+05     1.93656E+09
     3.02838E+01     1.57027E+00     3.14159E+00     1.14048E-13     3.04524E+02     1.58048E+06     1.80106E+05     1.93562E+09
     3.02838E+01     1.57031E+00     3.14159E+00     1.22466E-13     3.10940E+02     2.14167E+06     1.71104E+05     1.93467E+09
     3.02838E+01     1.57034E+00     3.14159E+00     1.31671E-13     3.17406E+02     2.51752E+06     1.61019E+05     1.93372E+09
     3.02838E+01     1.57037E+00     3.14159E+00     1.41601E-13     3.23924E+02     2.76250E+06     1.50582E+05     1.93279E+09
     3.02838E+01     1.57040E+00     3.14159E+00     1.52062E-13     3.30493E+02     2.91363E+06     1.40256E+05     1.93182E+09
     3.02838E+01     1.57043E+00     3.14159E+00     1.62786E-13     3.37097E+02     3.05957E+06     1.30235E+05     1.93082E+09
     3.02838E+01     1.57046E+00     3.14159E+00     1.73770E-13     3.43717E+02     3.43602E+06     1.20208E+05     1.92980E+09
     3.02838E+01     1.57048E+00     3.14159E+00     1.85110E-13     3.50337E+02     4.04626E+06     1.09589E+05     1.92869E+09
     3.02838E+01     1.57051E+00     3.14159E+00     1.96715E-13     3.56941E+02     4.39513E+06     9.85109E+04     1.92756E+09
     3.02838E+01     1.57053E+00     3.14159E+00     2.07985E-13     3.63506E+02     4.51754E+06     8.76620E+04     1.92645E+09
     3.02838E+01     1.57055E+00     3.14159E+00     2.18337E-13     3.69991E+02     4.62954E+06     7.73342E+04     1.92538E+09
     3.02838E+01     1.57057E+00     3.14159E+00     2.28117E-13     3.76360E+02     4.85468E+06     6.74031E+04     1.92431E+09
     3.02838E+01     1.57058E+00     3.14159E+00     2.37928E-13     3.82596E+02     5.11135E+06     5.77143E+04     1.92313E+09
     3.02838E+01     1.57060E+00     3.14159E+00     2.49182E-13     3.88708E+02     5.06154E+06     4.85189E+04     1.92179E+09
     3.02838E+01     1.57062E+00     3.14159E+00     2.62220E-13     3.94726E+02     4.38843E+06     4.05736E+04     1.92033E+09
     3.02838E+01     1.57063E+00     3.14159E+00     2.70890E-13     4.00609E+02     3.32088E+06     3.45670E+04     1.91895E+09
     3.02838E+01     1.57065E+00     3.14159E+00     2.75140E-13     4.06261E+02     2.41648E+06     3.05025E+04     1.91770E+09
     3.02838E+01     1.57066E+00     3.14159E+00     2.78834E-13     4.11639E+02     1.72897E+06     2.78737E+04     1.91686E+09
     3.02838E+01     1.57067E+00     3.14159E+00     2.82881E-13     4.16754E+02     1.37762E+06     2.61033E+04     1.91622E+09
     3.02838E+01     1.57068E+00     3.14159E+00     2.90476E-13     4.21650E+02     2.39154E+06     2.40686E+04     1.91542E+09
     3.02838E+01     1.57069E+00     3.14159E+00     3.11265E-13     4.26470E+02     3.43784E+06     2.09851E+04     1.91465E+09
     3.02838E+01     1.57070E+00     3.14159E+00     3.58082E-13     4.31499E+02     4.30160E+06     1.70731E+04     1.91425E+09
     3.02838E+01     1.57071E+00     3.14159E+00     4.28979E-13     4.37045E+02     4.67218E+06     1.27621E+04     1.91393E+09
     3.02838E+01     1.57072E+00     3.14159E+00     4.98482E-13     4.43175E+02     4.62122E+06     8.55589E+03     1.91341E+09
     3.02838E+01     1.57073E+00     3.14159E+00     5.58835E-13     4.49730E+02     3.67380E+06     5.08297E+03     1.91290E+09
     3.02838E+01     1.57074E+00     3.14159E+00     5.98572E-13     4.56460E+02     2.50446E+06     2.76158E+03     1.91225E+09
     3.02838E+01     1.57075E+00     3.14159E+00     6.10059E-13     4.63052E+02     1.96194E+06     1.30298E+03     1.91136E+09
     3.02838E+01     1.57075E+00     3.14159E+00     6.12103E-13     4.69305E+02     2.10277E+06     1.05858E+02     1.91055E+09
     3.02838E+01     1.57076E+00     3.14159E+00     6.04717E-13     4.75144E+02     1.89775E+06    -9.97546E+02     1.90857E+09
     3.02838E+01     1.57077E+00     3.14159E+00     6.20352E-13     4.80659E+02     6.76706E+05    -1.57163E+03     1.90678E+09
     3.02838E+01     1.57077E+00     3.14159E+00     7.48145E-13     4.86437E+02     2.96086E+05    -1.61044E+03     1.90788E+09
     3.02838E+01     1.57078E+00     3.14159E+00     1.08633E-12     4.93702E+02     1.12786E+06    -1.79366E+03     1.91074E+09
     3.02838E+01     1.57078E+00     3.14159E+00     1.67950E-12     5.03977E+02     4.36914E+05    -2.20566E+03     1.91189E+09
     3.02838E+01     1.57079E+00     3.14159E+00     4.47816E-12     5.25435E+02    -1.81449E+06    -1.50973E+03     1.91217E+09
     3.02838E+01     1.57079E+00     3.14159E+00     1.13490E-10     9.11048E+02    -4.11107E+06    -3.48490E+02     1.91801E+09
     3.02838E+01     1.57079E+00     3.14159E+00     6.29529E-10     3.18932E+03     1.19994E+03    -5.31186E+01     1.92599E+09
     3.02838E+01     1.57080E+00     3.14159E+00     1.00000E-09     7.87620E+03     2.50619E+03    -1.58714E+01     1.92606E+09
     3.08612E+01     4.86288E-02     3.14159E+00     2.28667E-21     1.77685E-03    -4.92067E+09     1.34454E+08     6.60713E+03
     3.08612E+01     1.42876E-01     3.14159E+00     2.29092E-21     1.77019E-03    -4.90882E+09     3.94785E+08     4.69260E+06
     3.08612E+01     2.31287E-01     3.14159E+00     2.34482E-21     1.83019E-03    -4.88491E+09     6.29926E+08     1.55027E+07
     3.08612E+01     3.14225E-01     3.14159E+00     2.47360E-21     1.98417E-03    -4.85212E+09     8.17661E+08     3.01257E+07
     3.08612E+01     3.92028E-01     3.14159E+00     3.04476E-21     2.77320E-03    -4.80938E+09     8.63177E+08     4.94267E+07
     3.08612E+01     4.65013E-01     3.14159E+00     4.11768E-21     4.53060E-03    -4.76073E+09     7.55535E+08     7.63574E+07
     3.08612E+01     5.33480E-01     3.14159E+00     5.68538E-21     7.63797E-03    -4.70648E+09     6.31643E+08     1.15022E+08
     3.08612E+01     5.97708E-01     3.14159E+00     6.83329E-21     1.01385E-02    -4.66971E+09     6.10361E+08     1.63016E+08
     3.08612E+01     6.57959E-01     3.14159E+00     7.65906E-21     1.14543E-02    -4.64646E+09     7.00158E+08     2.16292E+08
     3.08612E+01     7.14480E-01     3.14159E+00     8.18039E-21     1.19855E-02    -4.62395E+09     8.32805E+08     2.73209E+08
     3.08612E+01     7.67502E-01     3.14159E+00     8.72830E-21     1.23812E-02    -4.59722E+09     9.65980E+08     3.36225E+08
     3.08612E+01     8.17240E-01     3.14159E+00     9.30477E-21     1.28756E-02    -4.56282E+09     1.08553E+09     4.08949E+08
     3.08612E+01     8.63899E-01     3.14159E+00     9.77994E-21     1.32780E-02    -4.51446E+09     1.20152E+09     4.94976E+08
     3.08612E+01     9.07670E-01     3.14159E+00     1.00854E-20     1.34419E-02    -4.44503E+09     1.32156E+09     5.95849E+08
     3.08612E+01     9.48730E-01     3.14159E+00     1.02506E-20     1.34165E-02    -4.34972E+09     1.43859E+09     7.10641E+08
     3.08612E+01     9.87248E-01     3.14159E+00     1.03592E-20     1.34355E-02    -4.22808E+09     1.54179E+09     8.37795E+08
     3.08612E+01     1.02338E+00     3.14159E+00     1.05768E-20     1.37701E-02    -4.07641E+09     1.62170E+09     9.76433E+08
     3.08612E+01     1.05728E+00     3.14159E+00     1.09472E-20     1.44597E-02    -3.88860E+09     1.66554E+09     1.12445E+09
     3.08612E+01     1.08908E+00     3.14159E+00     1.13015E-20     1.52204E-02    -3.66529E+09     1.67725E+09     1.27836E+09
     3.08612E+01     1.11890E+00     3.14159E+00     1.15597E-20     1.58846E-02    -3.41269E+09     1.67455E+09     1.43346E+09
     3.08612E+01     1.14689E+00     3.14159E+00     1.16916E-20     1.63816E-02    -3.13661E+09     1.66341E+09     1.58265E+09
     3.08612E+01     1.17314E+00     3.14159E+00     1.17419E-20     1.67768E-02    -2.84586E+09     1.63674E+09     1.71958E+09
     3.08612E+01     1.19776E+00     3.14159E+00     1.18812E-20     1.74435E-02    -2.55013E+09     1.57949E+09     1.84129E+09
     3.08612E+01     1.22086E+00     3.14159E+00     1.22690E-20     1.88316E-02    -2.25658E+09     1.47660E+09     1.94766E+09
     3.08612E+01     1.24253E+00     3.14159E+00     1.29884E-20     2.12711E-02    -1.96644E+09     1.32831E+09     2.03869E+09
     3.08612E+01     1.26286E+00     3.14159E+00     1.39943E-20     2.47788E-02    -1.67372E+09     1.15153E+09     2.11351E+09
     3.08612E+01     1.28193E+00     3.14159E+00     1.52419E-20     2.93175E-02    -1.36758E+09     9.68952E+08     2.17125E+09
     3.08612E+01     1.29982E+00     3.14159E+00     1.65184E-20     3.43051E-02    -1.04864E+09     8.10246E+08     2.21453E+09
     3.08612E+01     1.31660E+00     3.14159E+00     1.73065E-20     3.77987E-02    -7.59924E+08     6.97894E+08     2.24509E+09
     3.08612E+01     1.33234E+00     3.14159E+00     1.76877E-20     3.95919E-02    -5.28388E+08     6.22094E+08     2.26041E+09
     3.08612E+01     1.34711E+00     3.14159E+00     1.78771E-20     4.08538E-02    -3.54778E+08     5.58493E+08     2.26733E+09
     3.08612E+01     1.36096E+00     3.14159E+00     1.80711E-20     4.22088E-02    -2.31516E+08     4.96941E+08     2.26788E+09
     3.08612E+01     1.37396E+00     3.14159E+00     1.82479E-20     4.36472E-02    -1.49210E+08     4.38874E+08     2.26668E+09
     3.08612E+01     1.38615E+00     3.14159E+00     1.84251E-20     4.50604E-02    -9.51815E+07     3.87965E+08     2.26577E+09
     3.08612E+01     1.39758E+00     3.14159E+00     1.86118E-20     4.63155E-02    -6.74057E+07     3.57148E+08     2.26496E+09
     3.08612E+01     1.40831E+00     3.14159E+00     1.87460E-20     4.71651E-02    -3.50657E+07     3.58886E+08     2.26301E+09
     3.08612E+01     1.41837E+00     3.14159E+00     1.90414E-20     4.83023E-02     5.59313E+07     3.68243E+08     2.25805E+09
     3.08612E+01     1.42781E+00     3.14159E+00     1.96564E-20     5.03858E-02     1.97232E+08     3.36574E+08     2.24786E+09
     3.08612E+01     1.43667E+00     3.14159E+00     2.06510E-20     5.40498E-02     2.95109E+08     2.56518E+08     2.23476E+09
     3.08612E+01     1.44498E+00     3.14159E+00     2.17255E-20     5.80565E-02     3.27819E+08     1.61388E+08     2.22195E+09
     3.08612E+01     1.45277E+00     3.14159E+00     2.25892E-20     6.15075E-02     3.11702E+08     7.59544E+07     2.21136E+09
     3.08612E+01     1.46008E+00     3.14159E+00     2.31685E-20     6.41596E-02     2.72967E+08     8.88313E+06     2.20284E+09
     3.08612E+01     1.46694E+00     3.14159E+00     2.38838E-20     6.60504E-02     2.21544E+08    -3.61415E+07     2.19070E+09
     3.08612E+01     1.47338E+00     3.14159E+00     2.61311E-20     6.74326E-02     1.78962E+08    -5.71140E+07     2.16322E+09
     3.08612E+01     1.47941E+00     3.14159E+00     3.43718E-20     6.85482E-02     1.39164E+08    -5.79774E+07     2.11352E+09
     3.08612E+01     1.48507E+00     3.14159E+00     5.99811E-20     6.97889E-02     9.42492E+07    -4.83435E+07     2.05226E+09
     3.08612E+01     1.49038E+00     3.14159E+00     1.24118E-19     7.16540E-02     6.20675E+07    -3.54548E+07     2.00677E+09
     3.08612E+01     1.49537E+00     3.14159E+00     2.57634E-19     7.49000E-02     3.83642E+07    -2.33656E+07     1.98263E+09
     3.08612E+01     1.50004E+00     3.14159E+00     4.84288E-19     8.04277E-02     2.22237E+07    -1.39874E+07     1.97193E+09
     3.08612E+01     1.50442E+00     3.14159E+00     8.21838E-19     8.91117E-02     1.27489E+07    -7.79550E+06     1.96733E+09
     3.08612E+01     1.50854E+00     3.14159E+00     1.31917E-18     1.01936E-01     6.82009E+06    -4.41600E+06     1.96455E+09
     3.08612E+01     1.51240E+00     3.14159E+00     2.02963E-18     1.20020E-01     3.37974E+06    -3.33422E+06     1.96180E+09
     3.08612E+01     1.51602E+00     3.14159E+00     3.16719E-18     1.45446E-01     9.37062E+06    -2.52644E+06     1.95806E+09
     3.08612E+01     1.51941E+00     3.14159E+00     7.76057E-18     1.93917E-01     5.85921E+06    -2.23533E+06     1.95212E+09
     3.08612E+01     1.52260E+00     3.14159E+00     1.30856E-17     2.77961E-01     5.81786E+06    -2.53128E+06     1.94788E+09
     3.08612E+01     1.52558E+00     3.14159E+00     2.19108E-17     4.06595E-01     4.73806E+06    -1.79350E+06     1.94448E+09
     3.08612E+01     1.52839E+00     3.14159E+00     3.64799E-17     6.02492E-01     2.08841E+06    -8.81829E+05     1.94124E+09
     3.08612E+01     1.53102E+00     3.14159E+00     5.96590E-17     8.97475E-01     2.84013E+05    -1.78816E+05     1.93842E+09
     3.08612E+01     1.53348E+00     3.14159E+00     9.54177E-17     1.33302E+00    -1.90312E+05     2.10185E+05     1.93600E+09
     3.08612E+01     1.53580E+00     3.14159E+00     1.50304E-16     1.96489E+00     9.37126E+04     3.20993E+05     1.93391E+09
     3.08612E+01     1.53797E+00     3.14159E+00     2.33238E-16     2.87039E+00     5.26436E+05     2.57616E+05     1.93213E+09
     3.08612E+01     1.54000E+00     3.14159E+00     3.52191E-16     4.13929E+00     1.06489E+06     8.87584E+04     1.93073E+09
     3.08612E+01     1.54191E+00     3.14159E+00     5.18587E-16     5.87413E+00     1.61189E+06    -1.20213E+05     1.92959E+09
     3.08612E+01     1.54371E+00     3.14159E+00     7.46186E-16     8.19270E+00     2.13491E+06    -2.88644E+05     1.92862E+09
     3.08612E+01     1.54539E+00     3.14159E+00     1.04838E-15     1.12186E+01     2.33571E+06    -3.86813E+05     1.92778E+09
     3.08612E+01     1.54696E+00     3.14159E+00     1.43682E-15     1.50799E+01     2.25121E+06    -4.31730E+05     1.92706E+09
     3.08612E+01     1.54844E+00     3.14159E+00     1.93546E-15     1.99105E+01     1.90609E+06    -4.41386E+05     1.92638E+09
     3.08612E+01     1.54983E+00     3.14159E+00     2.58394E-15     2.58834E+01     1.43414E+06    -4.22703E+05     1.92568E+09
     3.08612E+01     1.55113E+00     3.14159E+00     3.42227E-15     3.32116E+01     1.15841E+06    -3.93471E+05     1.92498E+09
     3.08612E+01     1.55235E+00     3.14159E+00     4.44817E-15     4.20858E+01     1.26807E+06    -3.80114E+05     1.92438E+09
     3.08612E+01     1.55350E+00     3.14159E+00     5.65134E-15     5.26168E+01     1.72986E+06    -3.91886E+05     1.92389E+09