 TITLE= "ZEUSMP/2 FIELD DATA AT TIME:    6.98735722704559      yr "
 VARIABLES= "X","Y","Z","rho","e","V1","V2","V3"
 ZONE I=  100 , J=  160 , K=    1 , F=POINT
     3.02838E+01     4.86288E-02     3.14159E+00     8.73104E-21     1.40310E-02    -4.68767E+09     1.99529E+08     6.21322E+06
     3.02838E+01     1.42876E-01     3.14159E+00     9.96614E-21     1.69377E-02    -4.63463E+09     5.46277E+08     2.94863E+07
     3.02838E+01     2.31287E-01     3.14159E+00     1.13946E-20     2.03397E-02    -4.58680E+09     7.44891E+08     4.42750E+07
     3.02838E+01     3.14225E-01     3.14159E+00     1.06352E-20     1.74528E-02    -4.62769E+09     7.90478E+08     5.49003E+07
     3.02838E+01     3.92028E-01     3.14159E+00     8.80812E-21     1.21195E-02    -4.73208E+09     7.89297E+08     6.76806E+07
     3.02838E+01     4.65013E-01     3.14159E+00     7.71550E-21     9.36362E-03    -4.77424E+09     8.34964E+08     8.86861E+07
     3.02838E+01     5.33480E-01     3.14159E+00     7.22439E-21     8.44423E-03    -4.77407E+09     9.34661E+08     1.23950E+08
     3.02838E+01     5.97708E-01     3.14159E+00     7.03223E-21     8.14318E-03    -4.75802E+09     1.06030E+09     1.82214E+08
     3.02838E+01     6.57959E-01     3.14159E+00     6.86749E-21     7.88199E-03    -4.71633E+09     1.20359E+09     2.72695E+08
     3.02838E+01     7.14480E-01     3.14159E+00     6.64350E-21     7.51351E-03    -4.63705E+09     1.36573E+09     4.00507E+08
     3.02838E+01     7.67502E-01     3.14159E+00     6.33944E-21     7.02200E-03    -4.50979E+09     1.53768E+09     5.61496E+08
     3.02838E+01     8.17240E-01     3.14159E+00     6.04345E-21     6.58282E-03    -4.33216E+09     1.70451E+09     7.46899E+08
     3.02838E+01     8.63899E-01     3.14159E+00     6.04169E-21     6.62311E-03    -4.09398E+09     1.84835E+09     9.49296E+08
     3.02838E+01     9.07670E-01     3.14159E+00     6.17802E-21     6.98658E-03    -3.79705E+09     1.92531E+09     1.15909E+09
     3.02838E+01     9.48730E-01     3.14159E+00     6.43719E-21     7.67374E-03    -3.45685E+09     1.92519E+09     1.36830E+09
     3.02838E+01     9.87248E-01     3.14159E+00     6.92009E-21     8.97749E-03    -3.08927E+09     1.86408E+09     1.57102E+09
     3.02838E+01     1.02338E+00     3.14159E+00     7.65726E-21     1.11250E-02    -2.70646E+09     1.74205E+09     1.75884E+09
     3.02838E+01     1.05728E+00     3.14159E+00     8.56272E-21     1.41734E-02    -2.31870E+09     1.57723E+09     1.91977E+09
     3.02838E+01     1.08908E+00     3.14159E+00     9.62325E-21     1.82352E-02    -1.93549E+09     1.38231E+09     2.04347E+09
     3.02838E+01     1.11890E+00     3.14159E+00     1.09635E-20     2.38694E-02    -1.55299E+09     1.16794E+09     2.12677E+09
     3.02838E+01     1.14689E+00     3.14159E+00     1.24337E-20     3.07451E-02    -1.16207E+09     9.89864E+08     2.17298E+09
     3.02838E+01     1.17314E+00     3.14159E+00     1.31833E-20     3.51095E-02    -8.35225E+08     9.02707E+08     2.18522E+09
     3.02838E+01     1.19776E+00     3.14159E+00     1.34601E-20     3.74301E-02    -5.91645E+08     8.77495E+08     2.18298E+09
     3.02838E+01     1.22086E+00     3.14159E+00     1.37215E-20     3.95043E-02    -4.11790E+08     8.61985E+08     2.17767E+09
     3.02838E+01     1.24253E+00     3.14159E+00     1.40357E-20     4.17190E-02    -2.80540E+08     8.41993E+08     2.17024E+09
     3.02838E+01     1.26286E+00     3.14159E+00     1.43878E-20     4.40305E-02    -1.86797E+08     8.18628E+08     2.16162E+09
     3.02838E+01     1.28193E+00     3.14159E+00     1.47611E-20     4.63572E-02    -1.25095E+08     7.94499E+08     2.15264E+09
     3.02838E+01     1.29982E+00     3.14159E+00     1.51257E-20     4.86399E-02    -8.73441E+07     7.71385E+08     2.14396E+09
     3.02838E+01     1.31660E+00     3.14159E+00     1.54821E-20     5.08472E-02    -5.48816E+07     7.49829E+08     2.13563E+09
     3.02838E+01     1.33234E+00     3.14159E+00     1.58458E-20     5.29909E-02    -2.11798E+07     7.29327E+08     2.12756E+09
     3.02838E+01     1.34711E+00     3.14159E+00     1.61944E-20     5.50290E-02    -1.46033E+07     7.10414E+08     2.12015E+09
     3.02838E+01     1.36096E+00     3.14159E+00     1.64914E-20     5.67980E-02    -2.41469E+07     6.94626E+08     2.11366E+09
     3.02838E+01     1.37396E+00     3.14159E+00     1.67592E-20     5.82651E-02    -2.93958E+07     6.82127E+08     2.10823E+09
     3.02838E+01     1.38615E+00     3.14159E+00     1.69990E-20     5.95669E-02    -2.30245E+07     6.71546E+08     2.10355E+09
     3.02838E+01     1.39758E+00     3.14159E+00     1.72262E-20     6.08650E-02     7.32021E+05     6.60909E+08     2.09917E+09
     3.02838E+01     1.40831E+00     3.14159E+00     1.74418E-20     6.21184E-02     2.59664E+07     6.35593E+08     2.09463E+09
     3.02838E+01     1.41837E+00     3.14159E+00     1.77294E-20     6.38283E-02     5.43886E+07     5.80945E+08     2.08961E+09
     3.02838E+01     1.42781E+00     3.14159E+00     1.80532E-20     6.58020E-02     7.62157E+07     5.02596E+08     2.08401E+09
     3.02838E+01     1.43667E+00     3.14159E+00     1.83616E-20     6.77358E-02     8.90950E+07     4.13438E+08     2.07775E+09
     3.02838E+01     1.44498E+00     3.14159E+00     1.86364E-20     6.94949E-02     8.79639E+07     3.26229E+08     2.07105E+09
     3.02838E+01     1.45277E+00     3.14159E+00     1.88507E-20     7.08964E-02     8.28994E+07     2.48845E+08     2.06392E+09
     3.02838E+01     1.46008E+00     3.14159E+00     1.90150E-20     7.19994E-02     7.51696E+07     1.82711E+08     2.05634E+09
     3.02838E+01     1.46694E+00     3.14159E+00     1.91329E-20     7.28532E-02     6.88969E+07     1.26762E+08     2.04781E+09
     3.02838E+01     1.47338E+00     3.14159E+00     1.92146E-20     7.35525E-02     5.62648E+07     8.13545E+07     2.03812E+09
     3.02838E+01     1.47941E+00     3.14159E+00     1.92488E-20     7.41145E-02     3.76553E+07     4.93001E+07     2.02739E+09
     3.02838E+01     1.48507E+00     3.14159E+00     1.92765E-20     7.45619E-02     2.03756E+07     3.05336E+07     2.01543E+09
     3.02838E+01     1.49038E+00     3.14159E+00     1.93161E-20     7.49331E-02     1.35641E+07     2.01171E+07     2.00171E+09
     3.02838E+01     1.49537E+00     3.14159E+00     1.92922E-20     7.52595E-02     1.10256E+07     1.29727E+07     1.98692E+09
     3.02838E+01     1.50004E+00     3.14159E+00     2.07040E-20     7.55617E-02     6.76126E+06     8.01494E+06     1.98542E+09
     3.02838E+01     1.50442E+00     3.14159E+00     4.08462E-20     7.59799E-02     5.68930E+06     4.78626E+06     1.99356E+09
     3.02838E+01     1.50854E+00     3.14159E+00     7.81580E-20     7.67180E-02     2.48440E+06     2.67359E+06     1.99574E+09
     3.02838E+01     1.51240E+00     3.14159E+00     1.28973E-19     7.78899E-02     1.83716E+05     1.79112E+06     1.99465E+09
     3.02838E+01     1.51602E+00     3.14159E+00     3.27737E-19     8.02481E-02    -1.84699E+06     1.57779E+06     1.99278E+09
     3.02838E+01     1.51941E+00     3.14159E+00     8.73695E-19     8.58500E-02    -3.16077E+06     1.41835E+06     1.99103E+09
     3.02838E+01     1.52260E+00     3.14159E+00     1.71674E-18     9.68007E-02    -2.98173E+06     1.28185E+06     1.98965E+09
     3.02838E+01     1.52558E+00     3.14159E+00     2.73951E-18     1.13969E-01    -4.95437E+05     1.18209E+06     1.98750E+09
     3.02838E+01     1.52839E+00     3.14159E+00     4.33552E-18     1.38799E-01     3.16445E+05     1.05729E+06     1.98437E+09
     3.02838E+01     1.53102E+00     3.14159E+00     7.07210E-18     1.75160E-01     1.40619E+05     9.74312E+05     1.98045E+09
     3.02838E+01     1.53348E+00     3.14159E+00     1.14524E-17     2.28998E-01     2.06135E+05     9.19055E+05     1.97636E+09
     3.02838E+01     1.53580E+00     3.14159E+00     1.80300E-17     3.07594E-01     7.55446E+05     7.95221E+05     1.97295E+09
     3.02838E+01     1.53797E+00     3.14159E+00     2.75353E-17     4.18911E-01     1.09481E+06     6.15010E+05     1.97086E+09
     3.02838E+01     1.54000E+00     3.14159E+00     4.14464E-17     5.73696E-01     1.03437E+06     4.38668E+05     1.96964E+09
     3.02838E+01     1.54191E+00     3.14159E+00     6.23507E-17     7.87875E-01     8.96521E+05     2.90185E+05     1.96870E+09
     3.02838E+01     1.54371E+00     3.14159E+00     9.25404E-17     1.08212E+00     7.92979E+05     1.71944E+05     1.96783E+09
     3.02838E+01     1.54539E+00     3.14159E+00     1.33476E-16     1.47723E+00     7.72122E+05     8.64049E+04     1.96701E+09
     3.02838E+01     1.54696E+00     3.14159E+00     1.86340E-16     1.99240E+00     8.25707E+05     1.09830E+04     1.96633E+09
     3.02838E+01     1.54844E+00     3.14159E+00     2.53650E-16     2.64607E+00     8.56006E+05    -6.40820E+04     1.96570E+09
     3.02838E+01     1.54983E+00     3.14159E+00     3.38276E-16     3.45772E+00     7.72416E+05    -1.29125E+05     1.96494E+09
     3.02838E+01     1.55113E+00     3.14159E+00     4.51276E-16     4.45670E+00     5.95180E+05    -1.68291E+05     1.96411E+09
     3.02838E+01     1.55235E+00     3.14159E+00     5.95878E-16     5.68139E+00     4.30105E+05    -1.81384E+05     1.96345E+09
     3.02838E+01     1.55350E+00     3.14159E+00     7.64411E-16     7.15253E+00     5.18663E+05    -1.90041E+05     1.96278E+09
     3.02838E+01     1.55457E+00     3.14159E+00     9.51587E-16     8.87168E+00     4.01823E+05    -1.99807E+05     1.96172E+09
     3.02838E+01     1.55558E+00     3.14159E+00     1.17225E-15     1.08404E+01    -4.24403E+05    -1.58506E+05     1.96081E+09
     3.02838E+01     1.55653E+00     3.14159E+00     1.47692E-15     1.31158E+01    -1.64991E+06    -2.27714E+04     1.96028E+09
     3.02838E+01     1.55742E+00     3.14159E+00     1.83906E-15     1.57571E+01    -2.07344E+06     1.62002E+05     1.96029E+09
     3.02838E+01     1.55825E+00     3.14159E+00     2.22836E-15     1.87632E+01    -1.57630E+06     3.06189E+05     1.96027E+09
     3.02838E+01     1.55903E+00     3.14159E+00     2.64564E-15     2.21081E+01    -9.09937E+05     3.73304E+05     1.96003E+09
     3.02838E+01     1.55976E+00     3.14159E+00     3.08302E-15     2.57606E+01    -4.64999E+05     3.84747E+05     1.95967E+09
     3.02838E+01     1.56045E+00     3.14159E+00     3.58674E-15     2.97127E+01    -2.60843E+05     3.70364E+05     1.95938E+09
     3.02838E+01     1.56109E+00     3.14159E+00     4.16519E-15     3.39846E+01     8.12403E+04     3.40566E+05     1.95897E+09
     3.02838E+01     1.56170E+00     3.14159E+00     4.64775E-15     3.85044E+01     4.54528E+05     2.94672E+05     1.95854E+09
     3.02838E+01     1.56226E+00     3.14159E+00     5.13566E-15     4.31741E+01     6.12508E+05     2.41644E+05     1.95824E+09
     3.02838E+01     1.56280E+00     3.14159E+00     5.67490E-15     4.79783E+01     5.45813E+05     1.92702E+05     1.95783E+09
     3.02838E+01     1.56330E+00     3.14159E+00     6.32134E-15     5.29433E+01     3.81194E+05     1.54563E+05     1.95699E+09
     3.02838E+01     1.56376E+00     3.14159E+00     7.14788E-15     5.81379E+01     9.38824E+04     1.32451E+05     1.95601E+09
     3.02838E+01     1.56420E+00     3.14159E+00     8.18371E-15     6.36500E+01    -6.39828E+05     1.37279E+05     1.95548E+09
     3.02838E+01     1.56461E+00     3.14159E+00     9.25392E-15     6.94953E+01    -6.36619E+05     1.58041E+05     1.95576E+09
     3.02838E+01     1.56500E+00     3.14159E+00     1.04085E-14     7.56440E+01     9.48828E+04     1.61343E+05     1.95628E+09
     3.02838E+01     1.56536E+00     3.14159E+00     1.15625E-14     8.20570E+01     5.57303E+05     1.40985E+05     1.95651E+09
     3.02838E+01     1.56570E+00     3.14159E+00     1.25817E-14     8.86350E+01     9.19605E+05     1.08130E+05     1.95608E+09
     3.02838E+01     1.56602E+00     3.14159E+00     1.34825E-14     9.52649E+01     1.03330E+06     7.06371E+04     1.95526E+09
     3.02838E+01     1.56632E+00     3.14159E+00     1.43572E-14     1.01880E+02     8.58887E+05     3.77470E+04     1.95456E+09
     3.02838E+01     1.56660E+00     3.14159E+00     1.53662E-14     1.08477E+02     7.89612E+05     1.19838E+04     1.95407E+09
     3.02838E+01     1.56687E+00     3.14159E+00     1.65705E-14     1.15100E+02     8.41164E+05    -1.09168E+04     1.95356E+09
     3.02838E+01     1.56711E+00     3.14159E+00     1.78434E-14     1.21769E+02     7.64125E+05    -3.14296E+04     1.95306E+09
     3.02838E+01     1.56734E+00     3.14159E+00     1.89796E-14     1.28440E+02     2.63294E+05    -4.30930E+04     1.95292E+09
     3.02838E+01     1.56756E+00     3.14159E+00     2.01945E-14     1.35076E+02    -1.12830E+06    -3.39452E+04     1.95334E+09
     3.02838E+01     1.56777E+00     3.14159E+00     2.19885E-14     1.41758E+02    -2.52073E+06    -3.03195E+02     1.95428E+09
     3.02838E+01     1.56796E+00     3.14159E+00     2.34966E-14     1.48499E+02    -2.63988E+06     4.23643E+04     1.95486E+09
     3.02838E+01     1.56814E+00     3.14159E+00     2.47154E-14     1.55184E+02    -7.98374E+05     6.78761E+04     1.95477E+09
     3.02838E+01     1.56831E+00     3.14159E+00     2.57229E-14     1.61730E+02     1.35361E+06     5.99437E+04     1.95400E+09
     3.02838E+01     1.56846E+00     3.14159E+00     2.67313E-14     1.68100E+02     2.58618E+06     2.50207E+04     1.95266E+09
     3.02838E+01     1.56861E+00     3.14159E+00     2.78259E-14     1.74303E+02     3.21029E+06    -2.21252E+04     1.95136E+09
     3.02838E+01     1.56875E+00     3.14159E+00     2.90132E-14     1.80351E+02     3.59870E+06    -7.32066E+04     1.95000E+09
     3.02838E+01     1.56888E+00     3.14159E+00     3.03133E-14     1.86262E+02     3.68856E+06    -1.23692E+05     1.94845E+09
     3.02838E+01     1.56900E+00     3.14159E+00     3.17637E-14     1.92051E+02     3.43546E+06    -1.69159E+05     1.94677E+09
     3.02838E+01     1.56912E+00     3.14159E+00     3.33926E-14     1.97741E+02     2.80740E+06    -2.05687E+05     1.94508E+09
     3.02838E+01     1.56923E+00     3.14159E+00     3.52204E-14     2.03352E+02     1.88595E+06    -2.30464E+05     1.94343E+09
     3.02838E+01     1.56933E+00     3.14159E+00     3.72870E-14     2.08904E+02     6.03613E+05    -2.41407E+05     1.94185E+09
     3.02838E+01     1.56942E+00     3.14159E+00     3.97045E-14     2.14426E+02    -2.20523E+06    -2.33060E+05     1.94059E+09
     3.02838E+01     1.56951E+00     3.14159E+00     4.26268E-14     2.19956E+02    -6.47929E+06    -1.97726E+05     1.94025E+09
     3.02838E+01     1.56959E+00     3.14159E+00     4.58511E-14     2.25521E+02    -1.11545E+07    -1.32960E+05     1.94076E+09
     3.02838E+01     1.56967E+00     3.14159E+00     4.91405E-14     2.31117E+02    -1.52957E+07    -4.39288E+04     1.94187E+09
     3.02838E+01     1.56975E+00     3.14159E+00     5.25325E-14     2.36725E+02    -1.77322E+07     5.82763E+04     1.94304E+09
     3.02838E+01     1.56981E+00     3.14159E+00     5.62367E-14     2.42344E+02    -1.80328E+07     1.60331E+05     1.94394E+09
     3.02838E+01     1.56988E+00     3.14159E+00     6.03273E-14     2.47985E+02    -1.65760E+07     2.51774E+05     1.94450E+09
     3.02838E+01     1.56994E+00     3.14159E+00     6.46573E-14     2.53655E+02    -1.36153E+07     3.25875E+05     1.94477E+09
     3.02838E+01     1.57000E+00     3.14159E+00     6.90099E-14     2.59341E+02    -9.56328E+06     3.78323E+05     1.94477E+09
     3.02838E+01     1.57005E+00     3.14159E+00     7.31363E-14     2.65013E+02    -5.07446E+06     4.07566E+05     1.94458E+09
     3.02838E+01     1.57010E+00     3.14159E+00     7.69192E-14     2.70631E+02    -1.42591E+06     4.16494E+05     1.94421E+09
     3.02838E+01     1.57015E+00     3.14159E+00     8.04860E-14     2.76159E+02     6.05453E+05     4.12166E+05     1.94370E+09
     3.02838E+01     1.57019E+00     3.14159E+00     8.42354E-14     2.81583E+02     1.73748E+06     4.01013E+05     1.94308E+09
     3.02838E+01     1.57023E+00     3.14159E+00     8.82217E-14     2.86907E+02     2.89494E+06     3.85548E+05     1.94234E+09
     3.02838E+01     1.57027E+00     3.14159E+00     9.24850E-14     2.92138E+02     4.18510E+06     3.66065E+05     1.94147E+09
     3.02838E+01     1.57031E+00     3.14159E+00     9.70384E-14     2.97282E+02     5.52237E+06     3.42812E+05     1.94046E+09
     3.02838E+01     1.57034E+00     3.14159E+00     1.01880E-13     3.02345E+02     6.80594E+06     3.16382E+05     1.93930E+09
     3.02838E+01     1.57037E+00     3.14159E+00     1.07002E-13     3.07330E+02     7.99063E+06     2.87549E+05     1.93799E+09
     3.02838E+01     1.57040E+00     3.14159E+00     1.12396E-13     3.12240E+02     9.02651E+06     2.57131E+05     1.93653E+09
     3.02838E+01     1.57043E+00     3.14159E+00     1.18074E-13     3.17076E+02     9.85272E+06     2.26004E+05     1.93492E+09
     3.02838E+01     1.57046E+00     3.14159E+00     1.24089E-13     3.21841E+02     1.04053E+07     1.95085E+05     1.93317E+09
     3.02838E+01     1.57048E+00     3.14159E+00     1.30548E-13     3.26540E+02     1.06327E+07     1.65282E+05     1.93132E+09
     3.02838E+01     1.57051E+00     3.14159E+00     1.37568E-13     3.31179E+02     1.05100E+07     1.37424E+05     1.92939E+09
     3.02838E+01     1.57053E+00     3.14159E+00     1.45183E-13     3.35767E+02     1.00471E+07     1.12190E+05     1.92741E+09
     3.02838E+01     1.57055E+00     3.14159E+00     1.53273E-13     3.40309E+02     9.26136E+06     9.00885E+04     1.92544E+09
     3.02838E+01     1.57057E+00     3.14159E+00     1.61619E-13     3.44802E+02     8.32719E+06     7.13140E+04     1.92349E+09
     3.02838E+01     1.57058E+00     3.14159E+00     1.69860E-13     3.49238E+02     7.35747E+06     5.57070E+04     1.92155E+09
     3.02838E+01     1.57060E+00     3.14159E+00     1.77656E-13     3.53599E+02     6.40354E+06     4.29504E+04     1.91961E+09
     3.02838E+01     1.57062E+00     3.14159E+00     1.85184E-13     3.57869E+02     5.53861E+06     3.26468E+04     1.91766E+09
     3.02838E+01     1.57063E+00     3.14159E+00     1.93036E-13     3.62043E+02     4.77880E+06     2.43707E+04     1.91574E+09
     3.02838E+01     1.57065E+00     3.14159E+00     2.01739E-13     3.66130E+02     4.06868E+06     1.77806E+04     1.91388E+09
     3.02838E+01     1.57066E+00     3.14159E+00     2.12013E-13     3.70147E+02     3.33855E+06     1.26684E+04     1.91211E+09
     3.02838E+01     1.57067E+00     3.14159E+00     2.25516E-13     3.74131E+02     2.58278E+06     8.89958E+03     1.91048E+09
     3.02838E+01     1.57068E+00     3.14159E+00     2.45041E-13     3.78150E+02     1.90431E+06     6.29070E+03     1.90911E+09
     3.02838E+01     1.57069E+00     3.14159E+00     2.73859E-13     3.82306E+02     1.41650E+06     4.55074E+03     1.90807E+09
     3.02838E+01     1.57070E+00     3.14159E+00     3.14365E-13     3.86726E+02     1.10687E+06     3.37243E+03     1.90738E+09
     3.02838E+01     1.57071E+00     3.14159E+00     3.66511E-13     3.91524E+02     9.12285E+05     2.53608E+03     1.90696E+09
     3.02838E+01     1.57072E+00     3.14159E+00     4.27035E-13     3.96769E+02     8.44799E+05     1.88430E+03     1.90663E+09
     3.02838E+01     1.57073E+00     3.14159E+00     4.90766E-13     4.02459E+02     9.00269E+05     1.28319E+03     1.90635E+09
     3.02838E+01     1.57074E+00     3.14159E+00     5.53709E-13     4.08533E+02     9.44073E+05     6.80738E+02     1.90611E+09
     3.02838E+01     1.57075E+00     3.14159E+00     6.14375E-13     4.14904E+02     1.06585E+06     5.48292E+01     1.90569E+09
     3.02838E+01     1.57075E+00     3.14159E+00     6.77510E-13     4.21513E+02     1.07644E+06    -5.79033E+02     1.90506E+09
     3.02838E+01     1.57076E+00     3.14159E+00     7.59473E-13     4.28409E+02     8.73023E+05    -1.10440E+03     1.90434E+09
     3.02838E+01     1.57077E+00     3.14159E+00     8.90134E-13     4.35835E+02     4.95617E+05    -1.40366E+03     1.90403E+09
     3.02838E+01     1.57077E+00     3.14159E+00     1.07162E-12     4.44118E+02     9.09739E+03    -1.41456E+03     1.90417E+09
     3.02838E+01     1.57078E+00     3.14159E+00     1.30739E-12     4.53540E+02    -5.82950E+05    -1.01693E+03     1.90486E+09
     3.02838E+01     1.57078E+00     3.14159E+00     1.60770E-12     4.64370E+02    -3.29544E+05    -5.15467E+02     1.90424E+09
     3.02838E+01     1.57079E+00     3.14159E+00     3.33852E-12     4.81607E+02    -3.33681E+05    -1.34784E+02     1.90334E+09
     3.02838E+01     1.57079E+00     3.14159E+00     1.19960E-10     8.84649E+02     4.50674E+05    -4.32016E+00     1.91870E+09
     3.02838E+01     1.57079E+00     3.14159E+00     6.30631E-10     3.18614E+03     1.16984E+03    -5.59259E+01     1.92597E+09
     3.02838E+01     1.57080E+00     3.14159E+00     1.00000E-09     7.87621E+03     1.95150E+03    -1.59290E+01     1.92606E+09
     3.08612E+01     4.86288E-02     3.14159E+00     8.69282E-21     1.39301E-02    -4.64577E+09     2.05704E+08     7.24650E+06
     3.08612E+01     1.42876E-01     3.14159E+00     9.92031E-21     1.67915E-02    -4.59244E+09     5.53272E+08     3.03858E+07
     3.08612E+01     2.31287E-01     3.14159E+00     1.11520E-20     1.95999E-02    -4.55151E+09     7.26536E+08     4.45508E+07
     3.08612E+01     3.14225E-01     3.14159E+00     1.01337E-20     1.60259E-02    -4.60279E+09     7.43490E+08     5.47893E+07
     3.08612E+01     3.92028E-01     3.14159E+00     8.33911E-21     1.10107E-02    -4.70729E+09     7.40381E+08     6.75053E+07
     3.08612E+01     4.65013E-01     3.14159E+00     7.40711E-21     8.73525E-03    -4.74250E+09     8.00571E+08     8.89224E+07
     3.08612E+01     5.33480E-01     3.14159E+00     6.98496E-21     7.98881E-03    -4.74082E+09     9.09393E+08     1.25463E+08
     3.08612E+01     5.97708E-01     3.14159E+00     6.82883E-21     7.75779E-03    -4.72334E+09     1.03586E+09     1.86475E+08
     3.08612E+01     6.57959E-01     3.14159E+00     6.68420E-21     7.53983E-03    -4.67984E+09     1.17821E+09     2.81898E+08
     3.08612E+01     7.14480E-01     3.14159E+00     6.47333E-21     7.20512E-03    -4.59729E+09     1.33907E+09     4.16972E+08
     3.08612E+01     7.67502E-01     3.14159E+00     6.17064E-21     6.73224E-03    -4.46513E+09     1.50834E+09     5.86692E+08
     3.08612E+01     8.17240E-01     3.14159E+00     5.92269E-21     6.37356E-03    -4.27961E+09     1.67202E+09     7.82252E+08
     3.08612E+01     8.63899E-01     3.14159E+00     5.93359E-21     6.44134E-03    -4.03077E+09     1.80216E+09     9.94586E+08
     3.08612E+01     9.07670E-01     3.14159E+00     6.06061E-21     6.79829E-03    -3.72224E+09     1.85399E+09     1.21310E+09
     3.08612E+01     9.48730E-01     3.14159E+00     6.30794E-21     7.47793E-03    -3.37159E+09     1.83025E+09     1.42907E+09
     3.08612E+01     9.87248E-01     3.14159E+00     6.79155E-21     8.80888E-03    -2.99512E+09     1.74294E+09     1.63461E+09
     3.08612E+01     1.02338E+00     3.14159E+00     7.49849E-21     1.10399E-02    -2.60518E+09     1.59547E+09     1.81842E+09
     3.08612E+01     1.05728E+00     3.14159E+00     8.31697E-21     1.39253E-02    -2.21813E+09     1.41931E+09     1.96634E+09
     3.08612E+01     1.08908E+00     3.14159E+00     9.21603E-21     1.73375E-02    -1.85069E+09     1.23126E+09     2.06916E+09
     3.08612E+01     1.11890E+00     3.14159E+00     1.03638E-20     2.21486E-02    -1.49668E+09     1.03188E+09     2.13361E+09
     3.08612E+01     1.14689E+00     3.14159E+00     1.16889E-20     2.85688E-02    -1.13600E+09     8.48643E+08     2.15280E+09
     3.08612E+01     1.17314E+00     3.14159E+00     1.25872E-20     3.38475E-02    -8.15919E+08     7.24584E+08     2.15157E+09
     3.08612E+01     1.19776E+00     3.14159E+00     1.30059E-20     3.70406E-02    -5.70029E+08     6.51445E+08     2.14855E+09
     3.08612E+01     1.22086E+00     3.14159E+00     1.33184E-20     3.96804E-02    -3.87065E+08     5.89594E+08     2.14325E+09
     3.08612E+01     1.24253E+00     3.14159E+00     1.36449E-20     4.23299E-02    -2.50590E+08     5.20024E+08     2.13573E+09
     3.08612E+01     1.26286E+00     3.14159E+00     1.40062E-20     4.49866E-02    -1.50630E+08     4.40085E+08     2.12651E+09
     3.08612E+01     1.28193E+00     3.14159E+00     1.43589E-20     4.75956E-02    -8.70383E+07     3.56398E+08     2.11626E+09
     3.08612E+01     1.29982E+00     3.14159E+00     1.47325E-20     5.00130E-02    -5.35045E+07     2.80673E+08     2.10516E+09
     3.08612E+01     1.31660E+00     3.14159E+00     1.50881E-20     5.21523E-02    -1.42676E+07     2.08751E+08     2.09464E+09
     3.08612E+01     1.33234E+00     3.14159E+00     1.54415E-20     5.43440E-02     2.96866E+07     1.28141E+08     2.08529E+09
     3.08612E+01     1.34711E+00     3.14159E+00     1.57225E-20     5.66067E-02     3.26670E+07     4.82499E+07     2.07645E+09
     3.08612E+01     1.36096E+00     3.14159E+00     1.66177E-20     5.85350E-02    -4.16025E+06    -2.90640E+06     2.07046E+09
     3.08612E+01     1.37396E+00     3.14159E+00     1.79500E-20     5.98698E-02    -3.58902E+07    -1.28503E+07     2.07062E+09
     3.08612E+01     1.38615E+00     3.14159E+00     1.79331E-20     6.07886E-02    -4.75069E+07     6.87759E+06     2.06772E+09
     3.08612E+01     1.39758E+00     3.14159E+00     1.77943E-20     6.14636E-02    -3.63213E+07     4.41168E+07     2.06541E+09
     3.08612E+01     1.40831E+00     3.14159E+00     1.78279E-20     6.24984E-02     3.28876E+07     7.51932E+07     2.06465E+09
     3.08612E+01     1.41837E+00     3.14159E+00     1.79704E-20     6.42435E-02     1.07126E+08     8.27473E+07     2.06334E+09
     3.08612E+01     1.42781E+00     3.14159E+00     1.81952E-20     6.63233E-02     1.64857E+08     7.22871E+07     2.06018E+09
     3.08612E+01     1.43667E+00     3.14159E+00     1.84638E-20     6.84341E-02     1.98678E+08     5.13570E+07     2.05494E+09
     3.08612E+01     1.44498E+00     3.14159E+00     1.87173E-20     7.02743E-02     2.04290E+08     2.48501E+07     2.04812E+09
     3.08612E+01     1.45277E+00     3.14159E+00     1.89258E-20     7.17801E-02     1.90545E+08    -1.38677E+06     2.04039E+09
     3.08612E+01     1.46008E+00     3.14159E+00     1.90799E-20     7.29380E-02     1.65815E+08    -2.05483E+07     2.03164E+09
     3.08612E+01     1.46694E+00     3.14159E+00     1.92279E-20     7.38220E-02     1.36256E+08    -2.87172E+07     2.02094E+09
     3.08612E+01     1.47338E+00     3.14159E+00     1.94670E-20     7.44875E-02     9.92452E+07    -2.62497E+07     2.00714E+09
     3.08612E+01     1.47941E+00     3.14159E+00     2.09031E-20     7.50191E-02     6.14050E+07    -1.95332E+07     1.99025E+09
     3.08612E+01     1.48507E+00     3.14159E+00     2.87679E-20     7.55475E-02     3.25414E+07    -1.41915E+07     1.97567E+09
     3.08612E+01     1.49038E+00     3.14159E+00     5.64647E-20     7.63300E-02     1.99365E+07    -1.02191E+07     1.97069E+09
     3.08612E+01     1.49537E+00     3.14159E+00     1.26479E-19     7.78348E-02     1.55390E+07    -6.27631E+06     1.97043E+09
     3.08612E+01     1.50004E+00     3.14159E+00     2.84564E-19     8.09003E-02     9.49570E+06    -3.33938E+06     1.96935E+09
     3.08612E+01     1.50442E+00     3.14159E+00     6.32496E-19     8.70998E-02     6.98237E+06    -1.32668E+06     1.96607E+09
     3.08612E+01     1.50854E+00     3.14159E+00     1.34964E-18     9.91692E-02     2.32165E+06     1.12133E+05     1.96176E+09
     3.08612E+01     1.51240E+00     3.14159E+00     2.68969E-18     1.21283E-01    -3.87563E+05     7.03964E+05     1.95765E+09
     3.08612E+01     1.51602E+00     3.14159E+00     4.99858E-18     1.59217E-01    -1.63266E+06     8.31277E+05     1.95375E+09
     3.08612E+01     1.51941E+00     3.14159E+00     8.74896E-18     2.20743E-01    -1.90332E+06     7.19154E+05     1.95018E+09
     3.08612E+01     1.52260E+00     3.14159E+00     1.46838E-17     3.16205E-01    -1.35674E+06     4.00239E+05     1.94693E+09
     3.08612E+01     1.52558E+00     3.14159E+00     2.45580E-17     4.61577E-01     1.81643E+05     9.98439E+04     1.94348E+09
     3.08612E+01     1.52839E+00     3.14159E+00     4.07960E-17     6.82061E-01     8.04076E+05    -8.16555E+04     1.94015E+09
     3.08612E+01     1.53102E+00     3.14159E+00     6.70166E-17     1.01393E+00     8.42462E+05    -2.41829E+05     1.93729E+09
     3.08612E+01     1.53348E+00     3.14159E+00     1.07966E-16     1.50619E+00     1.09812E+06    -4.18331E+05     1.93495E+09
     3.08612E+01     1.53580E+00     3.14159E+00     1.71398E-16     2.22646E+00     1.68237E+06    -5.45132E+05     1.93294E+09
     3.08612E+01     1.53797E+00     3.14159E+00     2.67398E-16     3.26296E+00     1.91364E+06    -5.77978E+05     1.93128E+09
     3.08612E+01     1.54000E+00     3.14159E+00     4.06725E-16     4.72623E+00     1.74024E+06    -5.55599E+05     1.92996E+09
     3.08612E+01     1.54191E+00     3.14159E+00     6.02302E-16     6.73636E+00     1.55278E+06    -5.21544E+05     1.92887E+09
     3.08612E+01     1.54371E+00     3.14159E+00     8.71850E-16     9.43858E+00     1.41977E+06    -4.88168E+05     1.92795E+09
     3.08612E+01     1.54539E+00     3.14159E+00     1.23399E-15     1.29906E+01     1.34580E+06    -4.59644E+05     1.92715E+09
     3.08612E+01     1.54696E+00     3.14159E+00     1.70833E-15     1.75643E+01     1.27370E+06    -4.21107E+05     1.92646E+09
     3.08612E+01     1.54844E+00     3.14159E+00     2.31729E-15     2.33320E+01     1.11609E+06    -3.56460E+05     1.92586E+09
     3.08612E+01     1.54983E+00     3.14159E+00     3.08737E-15     3.04758E+01     8.84757E+05    -2.78002E+05     1.92531E+09
     3.08612E+01     1.55113E+00     3.14159E+00     4.03810E-15     3.91738E+01     6.33671E+05    -2.05274E+05     1.92483E+09
     3.08612E+01     1.55235E+00     3.14159E+00     5.18886E-15     4.95821E+01     3.29135E+05    -1.37407E+05     1.92437E+09
     3.08612E+01     1.55350E+00     3.14159E+00     6.58254E-15     6.18636E+01     8.74279E+04    -4.25803E+04     1.92389E+09