 TITLE= "ZEUSMP/2 FIELD DATA AT TIME:    3.99277555906101      yr "
 VARIABLES= "X","Y","Z","rho","e","V1","V2","V3"
 ZONE I=  100 , J=  160 , K=    1 , F=POINT
     3.02838E+01     4.86288E-02     3.14159E+00     1.12564E-21     7.24703E-04    -5.00667E+09     1.50204E+08     3.81043E+05
     3.02838E+01     1.42876E-01     3.14159E+00     1.11671E-21     6.98849E-04    -4.99364E+09     4.46250E+08     6.33873E+07
     3.02838E+01     2.31287E-01     3.14159E+00     1.14571E-21     7.17497E-04    -4.96341E+09     7.37776E+08     1.43084E+08
     3.02838E+01     3.14225E-01     3.14159E+00     1.32102E-21     8.81616E-04    -4.91409E+09     8.82762E+08     1.95205E+08
     3.02838E+01     3.92028E-01     3.14159E+00     2.06148E-21     1.79482E-03    -4.85208E+09     7.30025E+08     2.43875E+08
     3.02838E+01     4.65013E-01     3.14159E+00     4.01151E-21     5.18218E-03    -4.74958E+09     4.55065E+08     3.11039E+08
     3.02838E+01     5.33480E-01     3.14159E+00     5.76350E-21     8.51469E-03    -4.68381E+09     4.23941E+08     3.95055E+08
     3.02838E+01     5.97708E-01     3.14159E+00     6.37658E-21     9.02984E-03    -4.63636E+09     6.49488E+08     4.82031E+08
     3.02838E+01     6.57959E-01     3.14159E+00     6.36828E-21     8.54443E-03    -4.57962E+09     8.93240E+08     5.67036E+08
     3.02838E+01     7.14480E-01     3.14159E+00     6.42762E-21     8.48324E-03    -4.50740E+09     1.09049E+09     6.51311E+08
     3.02838E+01     7.67502E-01     3.14159E+00     6.73926E-21     9.06034E-03    -4.41745E+09     1.23560E+09     7.40213E+08
     3.02838E+01     8.17240E-01     3.14159E+00     7.25029E-21     1.01451E-02    -4.30699E+09     1.33852E+09     8.38868E+08
     3.02838E+01     8.63899E-01     3.14159E+00     7.71933E-21     1.12985E-02    -4.17079E+09     1.42837E+09     9.47287E+08
     3.02838E+01     9.07670E-01     3.14159E+00     8.03727E-21     1.22530E-02    -4.00948E+09     1.51385E+09     1.06132E+09
     3.02838E+01     9.48730E-01     3.14159E+00     8.32080E-21     1.32232E-02    -3.82825E+09     1.58508E+09     1.17755E+09
     3.02838E+01     9.87248E-01     3.14159E+00     8.66578E-21     1.44433E-02    -3.62706E+09     1.63095E+09     1.29339E+09
     3.02838E+01     1.02338E+00     3.14159E+00     9.00744E-21     1.57372E-02    -3.40936E+09     1.65260E+09     1.40634E+09
     3.02838E+01     1.05728E+00     3.14159E+00     9.28910E-21     1.69287E-02    -3.18087E+09     1.66144E+09     1.51426E+09
     3.02838E+01     1.08908E+00     3.14159E+00     9.52360E-21     1.80319E-02    -2.94318E+09     1.65920E+09     1.61512E+09
     3.02838E+01     1.11890E+00     3.14159E+00     9.79385E-21     1.92953E-02    -2.69635E+09     1.63415E+09     1.70815E+09
     3.02838E+01     1.14689E+00     3.14159E+00     1.02132E-20     2.11406E-02    -2.43928E+09     1.56878E+09     1.79410E+09
     3.02838E+01     1.17314E+00     3.14159E+00     1.08664E-20     2.39876E-02    -2.16711E+09     1.45204E+09     1.87415E+09
     3.02838E+01     1.19776E+00     3.14159E+00     1.17821E-20     2.81439E-02    -1.86876E+09     1.29099E+09     1.94837E+09
     3.02838E+01     1.22086E+00     3.14159E+00     1.28946E-20     3.35067E-02    -1.53049E+09     1.12104E+09     2.01456E+09
     3.02838E+01     1.24253E+00     3.14159E+00     1.37630E-20     3.81328E-02    -1.17257E+09     1.00262E+09     2.06854E+09
     3.02838E+01     1.26286E+00     3.14159E+00     1.39472E-20     3.96844E-02    -8.66138E+08     9.59165E+08     2.10813E+09
     3.02838E+01     1.28193E+00     3.14159E+00     1.39160E-20     4.00849E-02    -6.24955E+08     9.54770E+08     2.13249E+09
     3.02838E+01     1.29982E+00     3.14159E+00     1.39198E-20     4.04069E-02    -4.42633E+08     9.57042E+08     2.14526E+09
     3.02838E+01     1.31660E+00     3.14159E+00     1.39771E-20     4.09058E-02    -3.12907E+08     9.56385E+08     2.15203E+09
     3.02838E+01     1.33234E+00     3.14159E+00     1.40961E-20     4.16761E-02    -2.26042E+08     9.50259E+08     2.15192E+09
     3.02838E+01     1.34711E+00     3.14159E+00     1.42677E-20     4.26994E-02    -1.59840E+08     9.39230E+08     2.15079E+09
     3.02838E+01     1.36096E+00     3.14159E+00     1.44825E-20     4.39132E-02    -1.02574E+08     9.24573E+08     2.14845E+09
     3.02838E+01     1.37396E+00     3.14159E+00     1.47335E-20     4.52740E-02    -5.16715E+07     9.07506E+08     2.14513E+09
     3.02838E+01     1.38615E+00     3.14159E+00     1.50169E-20     4.67565E-02    -8.65448E+05     8.88944E+08     2.14084E+09
     3.02838E+01     1.39758E+00     3.14159E+00     1.52962E-20     4.82172E-02     2.30230E+07     8.56404E+08     2.13624E+09
     3.02838E+01     1.40831E+00     3.14159E+00     1.56663E-20     5.01845E-02     4.89463E+07     7.94570E+08     2.13141E+09
     3.02838E+01     1.41837E+00     3.14159E+00     1.60919E-20     5.25088E-02     7.67281E+07     7.04562E+08     2.12619E+09
     3.02838E+01     1.42781E+00     3.14159E+00     1.65241E-20     5.49488E-02     9.96814E+07     5.95334E+08     2.12041E+09
     3.02838E+01     1.43667E+00     3.14159E+00     1.69296E-20     5.73124E-02     1.09640E+08     4.79977E+08     2.11405E+09
     3.02838E+01     1.44498E+00     3.14159E+00     1.72724E-20     5.93553E-02     1.05920E+08     3.72424E+08     2.10724E+09
     3.02838E+01     1.45277E+00     3.14159E+00     1.75341E-20     6.09343E-02     9.57761E+07     2.80582E+08     2.10006E+09
     3.02838E+01     1.46008E+00     3.14159E+00     1.77318E-20     6.21242E-02     8.15032E+07     2.06272E+08     2.09264E+09
     3.02838E+01     1.46694E+00     3.14159E+00     1.78807E-20     6.30078E-02     6.78043E+07     1.48275E+08     2.08512E+09
     3.02838E+01     1.47338E+00     3.14159E+00     1.79941E-20     6.36739E-02     5.98979E+07     1.02219E+08     2.07709E+09
     3.02838E+01     1.47941E+00     3.14159E+00     1.80882E-20     6.42221E-02     4.94235E+07     6.54217E+07     2.06836E+09
     3.02838E+01     1.48507E+00     3.14159E+00     1.81712E-20     6.46795E-02     3.23493E+07     3.95793E+07     2.06049E+09
     3.02838E+01     1.49038E+00     3.14159E+00     1.82458E-20     6.50528E-02     2.17348E+07     2.35716E+07     2.05324E+09
     3.02838E+01     1.49537E+00     3.14159E+00     1.83177E-20     6.53769E-02     1.54707E+07     1.32669E+07     2.04488E+09
     3.02838E+01     1.50004E+00     3.14159E+00     1.83792E-20     6.56660E-02     1.00138E+07     6.64973E+06     2.03465E+09
     3.02838E+01     1.50442E+00     3.14159E+00     1.83881E-20     6.59250E-02     4.09069E+06     3.19195E+06     2.02136E+09
     3.02838E+01     1.50854E+00     3.14159E+00     1.88634E-20     6.61593E-02    -1.73834E+06     2.17215E+06     2.00578E+09
     3.02838E+01     1.51240E+00     3.14159E+00     2.90498E-20     6.64308E-02    -5.09356E+06     2.04592E+06     1.99618E+09
     3.02838E+01     1.51602E+00     3.14159E+00     1.74436E-19     6.74756E-02    -2.03588E+06     2.16461E+06     1.99512E+09
     3.02838E+01     1.51941E+00     3.14159E+00     6.51031E-19     7.13437E-02    -5.71960E+06     2.16127E+06     1.99391E+09
     3.02838E+01     1.52260E+00     3.14159E+00     1.32256E-18     7.97545E-02    -2.68128E+06     1.90877E+06     1.99166E+09
     3.02838E+01     1.52558E+00     3.14159E+00     2.25631E-18     9.36593E-02    -1.01169E+06     1.75150E+06     1.98931E+09
     3.02838E+01     1.52839E+00     3.14159E+00     3.55298E-18     1.14261E-01    -6.45873E+05     1.52141E+06     1.98707E+09
     3.02838E+01     1.53102E+00     3.14159E+00     5.47720E-18     1.43524E-01    -1.95995E+05     1.23035E+06     1.98434E+09
     3.02838E+01     1.53348E+00     3.14159E+00     8.70738E-18     1.85534E-01    -2.61503E+05     9.73594E+05     1.98056E+09
     3.02838E+01     1.53580E+00     3.14159E+00     1.35219E-17     2.45602E-01    -8.48510E+05     8.58195E+05     1.97706E+09
     3.02838E+01     1.53797E+00     3.14159E+00     2.03049E-17     3.29410E-01    -1.54573E+06     8.59677E+05     1.97463E+09
     3.02838E+01     1.54000E+00     3.14159E+00     3.00639E-17     4.43764E-01    -1.97100E+06     9.29818E+05     1.97286E+09
     3.02838E+01     1.54191E+00     3.14159E+00     4.40490E-17     5.98116E-01    -2.01237E+06     9.93607E+05     1.97137E+09
     3.02838E+01     1.54371E+00     3.14159E+00     6.32409E-17     8.03852E-01    -1.82325E+06     9.92944E+05     1.97008E+09
     3.02838E+01     1.54539E+00     3.14159E+00     8.85972E-17     1.07155E+00    -1.54650E+06     9.42195E+05     1.96896E+09
     3.02838E+01     1.54696E+00     3.14159E+00     1.22257E-16     1.41382E+00    -1.47164E+06     8.63958E+05     1.96790E+09
     3.02838E+01     1.54844E+00     3.14159E+00     1.65951E-16     1.84459E+00    -1.51087E+06     8.02955E+05     1.96687E+09
     3.02838E+01     1.54983E+00     3.14159E+00     2.22268E-16     2.37939E+00    -1.39512E+06     7.53671E+05     1.96589E+09
     3.02838E+01     1.55113E+00     3.14159E+00     2.94809E-16     3.03593E+00    -1.41952E+06     7.20855E+05     1.96486E+09
     3.02838E+01     1.55235E+00     3.14159E+00     3.92039E-16     3.84128E+00    -1.98226E+06     7.42510E+05     1.96375E+09
     3.02838E+01     1.55350E+00     3.14159E+00     5.18837E-16     4.82840E+00    -2.27289E+06     8.13050E+05     1.96251E+09
     3.02838E+01     1.55457E+00     3.14159E+00     6.72928E-16     6.02292E+00    -2.38730E+06     8.96100E+05     1.96130E+09
     3.02838E+01     1.55558E+00     3.14159E+00     8.58449E-16     7.44433E+00    -2.67337E+06     9.83053E+05     1.96072E+09
     3.02838E+01     1.55653E+00     3.14159E+00     1.07463E-15     9.10762E+00    -2.49335E+06     1.05399E+06     1.96052E+09
     3.02838E+01     1.55742E+00     3.14159E+00     1.31754E-15     1.10167E+01    -1.98782E+06     1.07171E+06     1.96010E+09
     3.02838E+01     1.55825E+00     3.14159E+00     1.63673E-15     1.32038E+01    -1.34052E+06     1.02922E+06     1.95912E+09
     3.02838E+01     1.55903E+00     3.14159E+00     1.97122E-15     1.56833E+01    -6.08533E+05     9.34781E+05     1.95770E+09
     3.02838E+01     1.55976E+00     3.14159E+00     2.29436E-15     1.84060E+01    -8.90142E+05     8.39618E+05     1.95697E+09
     3.02838E+01     1.56045E+00     3.14159E+00     2.64948E-15     2.13393E+01    -1.50627E+06     7.97624E+05     1.95697E+09
     3.02838E+01     1.56109E+00     3.14159E+00     3.07145E-15     2.44939E+01    -1.94301E+06     8.03705E+05     1.95696E+09
     3.02838E+01     1.56170E+00     3.14159E+00     3.56088E-15     2.78955E+01    -1.93896E+06     8.26098E+05     1.95683E+09
     3.02838E+01     1.56226E+00     3.14159E+00     4.12486E-15     3.15645E+01    -1.99787E+06     8.45399E+05     1.95678E+09
     3.02838E+01     1.56280E+00     3.14159E+00     4.66082E-15     3.54699E+01    -1.56222E+06     8.50399E+05     1.95656E+09
     3.02838E+01     1.56330E+00     3.14159E+00     5.17375E-15     3.95428E+01    -1.09358E+06     8.29064E+05     1.95612E+09
     3.02838E+01     1.56376E+00     3.14159E+00     5.68823E-15     4.37351E+01    -7.11158E+05     7.87233E+05     1.95565E+09
     3.02838E+01     1.56420E+00     3.14159E+00     6.25028E-15     4.80304E+01    -5.37054E+05     7.35535E+05     1.95528E+09
     3.02838E+01     1.56461E+00     3.14159E+00     6.91317E-15     5.24475E+01    -7.96580E+05     6.92711E+05     1.95497E+09
     3.02838E+01     1.56500E+00     3.14159E+00     7.73343E-15     5.70309E+01    -1.75194E+06     6.83612E+05     1.95465E+09
     3.02838E+01     1.56536E+00     3.14159E+00     8.68266E-15     6.18233E+01    -2.98294E+06     7.19193E+05     1.95417E+09
     3.02838E+01     1.56570E+00     3.14159E+00     9.72749E-15     6.68383E+01    -3.15226E+06     7.75294E+05     1.95344E+09
     3.02838E+01     1.56602E+00     3.14159E+00     1.08426E-14     7.20696E+01    -2.74786E+06     8.19390E+05     1.95262E+09
     3.02838E+01     1.56632E+00     3.14159E+00     1.19205E-14     7.74750E+01    -2.60378E+06     8.48823E+05     1.95200E+09
     3.02838E+01     1.56660E+00     3.14159E+00     1.28400E-14     8.29680E+01    -1.82212E+06     8.61242E+05     1.95144E+09
     3.02838E+01     1.56687E+00     3.14159E+00     1.36795E-14     8.84657E+01    -9.65003E+05     8.49194E+05     1.95091E+09
     3.02838E+01     1.56711E+00     3.14159E+00     1.45754E-14     9.39404E+01    -1.27376E+06     8.30438E+05     1.95053E+09
     3.02838E+01     1.56734E+00     3.14159E+00     1.55908E-14     9.94022E+01    -2.32784E+06     8.30012E+05     1.95066E+09
     3.02838E+01     1.56756E+00     3.14159E+00     1.66186E-14     1.04853E+02    -2.70672E+06     8.45557E+05     1.95093E+09
     3.02838E+01     1.56777E+00     3.14159E+00     1.73379E-14     1.10229E+02    -9.30788E+05     8.44668E+05     1.95113E+09
     3.02838E+01     1.56796E+00     3.14159E+00     1.82935E-14     1.15508E+02     1.46850E+06     8.01709E+05     1.95064E+09
     3.02838E+01     1.56814E+00     3.14159E+00     1.97393E-14     1.20780E+02     1.61858E+06     7.38845E+05     1.94989E+09
     3.02838E+01     1.56831E+00     3.14159E+00     2.13869E-14     1.26114E+02     7.38947E+05     6.89009E+05     1.94906E+09
     3.02838E+01     1.56846E+00     3.14159E+00     2.29495E-14     1.31492E+02    -2.17965E+06     6.74028E+05     1.94815E+09
     3.02838E+01     1.56861E+00     3.14159E+00     2.48792E-14     1.36917E+02    -5.30606E+06     7.08064E+05     1.94711E+09
     3.02838E+01     1.56875E+00     3.14159E+00     2.72686E-14     1.42450E+02    -6.73516E+06     7.74021E+05     1.94621E+09
     3.02838E+01     1.56888E+00     3.14159E+00     2.99309E-14     1.48129E+02    -6.80152E+06     8.45160E+05     1.94556E+09
     3.02838E+01     1.56900E+00     3.14159E+00     3.26351E-14     1.53947E+02    -5.95798E+06     9.05352E+05     1.94514E+09
     3.02838E+01     1.56912E+00     3.14159E+00     3.51960E-14     1.59858E+02    -4.29856E+06     9.44997E+05     1.94488E+09
     3.02838E+01     1.56923E+00     3.14159E+00     3.75050E-14     1.65797E+02    -1.90302E+06     9.57601E+05     1.94463E+09
     3.02838E+01     1.56933E+00     3.14159E+00     3.94092E-14     1.71687E+02     5.42342E+05     9.42635E+05     1.94431E+09
     3.02838E+01     1.56942E+00     3.14159E+00     4.12399E-14     1.77478E+02     2.06086E+06     9.08522E+05     1.94390E+09
     3.02838E+01     1.56951E+00     3.14159E+00     4.30282E-14     1.83146E+02     3.39358E+06     8.63489E+05     1.94341E+09
     3.02838E+01     1.56959E+00     3.14159E+00     4.48587E-14     1.88686E+02     4.54378E+06     8.10948E+05     1.94284E+09
     3.02838E+01     1.56967E+00     3.14159E+00     4.67882E-14     1.94099E+02     5.54928E+06     7.53526E+05     1.94217E+09
     3.02838E+01     1.56975E+00     3.14159E+00     4.88407E-14     1.99392E+02     6.43027E+06     6.93148E+05     1.94137E+09
     3.02838E+01     1.56981E+00     3.14159E+00     5.10368E-14     2.04573E+02     7.20614E+06     6.31261E+05     1.94045E+09
     3.02838E+01     1.56988E+00     3.14159E+00     5.33962E-14     2.09650E+02     7.89196E+06     5.68976E+05     1.93939E+09
     3.02838E+01     1.56994E+00     3.14159E+00     5.59350E-14     2.14631E+02     8.46908E+06     5.07241E+05     1.93819E+09
     3.02838E+01     1.57000E+00     3.14159E+00     5.86661E-14     2.19524E+02     8.87653E+06     4.47093E+05     1.93688E+09
     3.02838E+01     1.57005E+00     3.14159E+00     6.15938E-14     2.24338E+02     9.08059E+06     3.89655E+05     1.93550E+09
     3.02838E+01     1.57010E+00     3.14159E+00     6.47021E-14     2.29075E+02     9.06665E+06     3.35951E+05     1.93405E+09
     3.02838E+01     1.57015E+00     3.14159E+00     6.79420E-14     2.33739E+02     8.84240E+06     2.86805E+05     1.93255E+09
     3.02838E+01     1.57019E+00     3.14159E+00     7.12431E-14     2.38327E+02     8.41178E+06     2.42817E+05     1.93101E+09
     3.02838E+01     1.57023E+00     3.14159E+00     7.45680E-14     2.42832E+02     7.81330E+06     2.04339E+05     1.92944E+09
     3.02838E+01     1.57027E+00     3.14159E+00     7.79699E-14     2.47250E+02     7.11634E+06     1.71376E+05     1.92785E+09
     3.02838E+01     1.57031E+00     3.14159E+00     8.15812E-14     2.51582E+02     6.38325E+06     1.43619E+05     1.92627E+09
     3.02838E+01     1.57034E+00     3.14159E+00     8.55425E-14     2.55837E+02     5.68024E+06     1.20523E+05     1.92472E+09
     3.02838E+01     1.57037E+00     3.14159E+00     8.99531E-14     2.60025E+02     5.05118E+06     1.01404E+05     1.92320E+09
     3.02838E+01     1.57040E+00     3.14159E+00     9.48220E-14     2.64160E+02     4.50433E+06     8.55749E+04     1.92174E+09
     3.02838E+01     1.57043E+00     3.14159E+00     9.99272E-14     2.68246E+02     4.00140E+06     7.24828E+04     1.92037E+09
     3.02838E+01     1.57046E+00     3.14159E+00     1.04835E-13     2.72275E+02     3.46797E+06     6.18080E+04     1.91911E+09
     3.02838E+01     1.57048E+00     3.14159E+00     1.09487E-13     2.76229E+02     2.88173E+06     5.34005E+04     1.91797E+09
     3.02838E+01     1.57051E+00     3.14159E+00     1.14687E-13     2.80107E+02     2.27198E+06     4.71012E+04     1.91698E+09
     3.02838E+01     1.57053E+00     3.14159E+00     1.21951E-13     2.83945E+02     1.80015E+06     4.25404E+04     1.91619E+09
     3.02838E+01     1.57055E+00     3.14159E+00     1.32935E-13     2.87823E+02     1.61870E+06     3.90504E+04     1.91562E+09
     3.02838E+01     1.57057E+00     3.14159E+00     1.48356E-13     2.91836E+02     1.79779E+06     3.58223E+04     1.91537E+09
     3.02838E+01     1.57058E+00     3.14159E+00     1.67359E-13     2.96060E+02     2.13621E+06     3.23018E+04     1.91531E+09
     3.02838E+01     1.57060E+00     3.14159E+00     1.86743E-13     3.00503E+02     2.44996E+06     2.84047E+04     1.91521E+09
     3.02838E+01     1.57062E+00     3.14159E+00     2.02805E-13     3.05087E+02     2.72460E+06     2.42588E+04     1.91494E+09
     3.02838E+01     1.57063E+00     3.14159E+00     2.12610E-13     3.09672E+02     2.90033E+06     2.00268E+04     1.91437E+09
     3.02838E+01     1.57065E+00     3.14159E+00     2.15810E-13     3.14106E+02     2.91823E+06     1.59978E+04     1.91365E+09
     3.02838E+01     1.57066E+00     3.14159E+00     2.15300E-13     3.18292E+02     2.59537E+06     1.24564E+04     1.91276E+09
     3.02838E+01     1.57067E+00     3.14159E+00     2.16799E-13     3.22226E+02     2.06206E+06     9.67468E+03     1.91161E+09
     3.02838E+01     1.57068E+00     3.14159E+00     2.20723E-13     3.25963E+02     1.54926E+06     7.75208E+03     1.91006E+09
     3.02838E+01     1.57069E+00     3.14159E+00     2.30406E-13     3.29576E+02     1.37314E+06     6.37817E+03     1.90831E+09
     3.02838E+01     1.57070E+00     3.14159E+00     2.48663E-13     3.33175E+02     1.42646E+06     5.17517E+03     1.90690E+09
     3.02838E+01     1.57071E+00     3.14159E+00     2.73684E-13     3.36856E+02     1.59217E+06     3.93706E+03     1.90598E+09
     3.02838E+01     1.57072E+00     3.14159E+00     2.96244E-13     3.40623E+02     1.66650E+06     2.65994E+03     1.90537E+09
     3.02838E+01     1.57073E+00     3.14159E+00     3.06970E-13     3.44363E+02     1.36720E+06     1.56552E+03     1.90470E+09
     3.02838E+01     1.57074E+00     3.14159E+00     3.19349E-13     3.48005E+02     9.03734E+05     8.69723E+02     1.90402E+09
     3.02838E+01     1.57075E+00     3.14159E+00     3.37469E-13     3.51587E+02     4.83375E+05     5.75037E+02     1.90355E+09
     3.02838E+01     1.57075E+00     3.14159E+00     3.49592E-13     3.55103E+02     3.67844E+05     5.04436E+02     1.90246E+09
     3.02838E+01     1.57076E+00     3.14159E+00     3.58842E-13     3.58502E+02     4.37712E+05     4.55534E+02     1.90107E+09
     3.02838E+01     1.57077E+00     3.14159E+00     3.68929E-13     3.61778E+02     1.05728E+05     4.91434E+02     1.90042E+09
     3.02838E+01     1.57077E+00     3.14159E+00     5.13250E-13     3.65503E+02    -6.22568E+05     1.07093E+03     1.90794E+09
     3.02838E+01     1.57078E+00     3.14159E+00     6.24020E-13     3.70007E+02     9.72232E+05     1.38365E+03     1.91001E+09
     3.02838E+01     1.57078E+00     3.14159E+00     7.65211E-13     3.75169E+02    -5.32953E+05     1.59072E+03     1.90403E+09
     3.02838E+01     1.57079E+00     3.14159E+00     5.68792E-12     3.97657E+02     2.91944E+06     1.55287E+03     1.90811E+09
     3.02838E+01     1.57079E+00     3.14159E+00     1.35092E-10     8.57848E+02     3.97243E+06     2.27729E+02     1.91965E+09
     3.02838E+01     1.57079E+00     3.14159E+00     6.27331E-10     3.19562E+03     1.07748E+03    -4.68184E+02     1.92597E+09
     3.02838E+01     1.57080E+00     3.14159E+00     9.99996E-10     7.87616E+03     2.33042E+03    -1.39320E+02     1.92606E+09
     3.08612E+01     4.86288E-02     3.14159E+00     1.10981E-21     7.07788E-04    -4.96886E+09     1.48312E+08     4.40676E+05
     3.08612E+01     1.42876E-01     3.14159E+00     1.10155E-21     6.82980E-04    -4.95591E+09     4.40922E+08     6.56871E+07
     3.08612E+01     2.31287E-01     3.14159E+00     1.13311E-21     7.03746E-04    -4.92583E+09     7.25990E+08     1.45527E+08
     3.08612E+01     3.14225E-01     3.14159E+00     1.29553E-21     8.51108E-04    -4.87710E+09     8.80673E+08     1.95891E+08
     3.08612E+01     3.92028E-01     3.14159E+00     1.99546E-21     1.68630E-03    -4.81636E+09     7.48207E+08     2.42177E+08
     3.08612E+01     4.65013E-01     3.14159E+00     3.83857E-21     4.77499E-03    -4.71708E+09     4.72965E+08     3.06217E+08
     3.08612E+01     5.33480E-01     3.14159E+00     5.63830E-21     8.16601E-03    -4.64833E+09     4.27380E+08     3.88976E+08
     3.08612E+01     5.97708E-01     3.14159E+00     6.26739E-21     8.72705E-03    -4.60044E+09     6.37927E+08     4.76548E+08
     3.08612E+01     6.57959E-01     3.14159E+00     6.24403E-21     8.23191E-03    -4.54406E+09     8.72972E+08     5.62811E+08
     3.08612E+01     7.14480E-01     3.14159E+00     6.30936E-21     8.21133E-03    -4.47089E+09     1.06682E+09     6.48484E+08
     3.08612E+01     7.67502E-01     3.14159E+00     6.64325E-21     8.83303E-03    -4.37936E+09     1.20802E+09     7.39573E+08
     3.08612E+01     8.17240E-01     3.14159E+00     7.15741E-21     9.92306E-03    -4.26684E+09     1.30596E+09     8.41293E+08
     3.08612E+01     8.63899E-01     3.14159E+00     7.61078E-21     1.10477E-02    -4.12781E+09     1.39134E+09     9.53180E+08
     3.08612E+01     9.07670E-01     3.14159E+00     7.90652E-21     1.19556E-02    -3.96354E+09     1.47179E+09     1.07054E+09
     3.08612E+01     9.48730E-01     3.14159E+00     8.17927E-21     1.29010E-02    -3.77892E+09     1.53637E+09     1.18979E+09
     3.08612E+01     9.87248E-01     3.14159E+00     8.51158E-21     1.40857E-02    -3.57364E+09     1.57240E+09     1.30809E+09
     3.08612E+01     1.02338E+00     3.14159E+00     8.82593E-21     1.52988E-02    -3.35234E+09     1.58307E+09     1.42304E+09
     3.08612E+01     1.05728E+00     3.14159E+00     9.08036E-21     1.64057E-02    -3.12010E+09     1.58223E+09     1.53253E+09
     3.08612E+01     1.08908E+00     3.14159E+00     9.28306E-21     1.74065E-02    -2.87787E+09     1.56972E+09     1.63450E+09
     3.08612E+01     1.11890E+00     3.14159E+00     9.50928E-21     1.85224E-02    -2.62629E+09     1.53210E+09     1.72828E+09
     3.08612E+01     1.14689E+00     3.14159E+00     9.85629E-21     2.01103E-02    -2.36542E+09     1.45431E+09     1.81464E+09
     3.08612E+01     1.17314E+00     3.14159E+00     1.03803E-20     2.24557E-02    -2.09252E+09     1.33198E+09     1.89431E+09
     3.08612E+01     1.19776E+00     3.14159E+00     1.10947E-20     2.57273E-02    -1.79990E+09     1.17466E+09     1.96642E+09
     3.08612E+01     1.22086E+00     3.14159E+00     1.19434E-20     2.99587E-02    -1.47729E+09     1.00387E+09     2.02845E+09
     3.08612E+01     1.24253E+00     3.14159E+00     1.27672E-20     3.43472E-02    -1.13687E+09     8.55143E+08     2.07918E+09
     3.08612E+01     1.26286E+00     3.14159E+00     1.32394E-20     3.71608E-02    -8.32564E+08     7.52258E+08     2.11741E+09
     3.08612E+01     1.28193E+00     3.14159E+00     1.34543E-20     3.86162E-02    -5.90367E+08     6.81219E+08     2.13892E+09
     3.08612E+01     1.29982E+00     3.14159E+00     1.36186E-20     3.97963E-02    -4.07278E+08     6.19172E+08     2.15026E+09
     3.08612E+01     1.31660E+00     3.14159E+00     1.37715E-20     4.10312E-02    -2.80252E+08     5.60830E+08     2.15017E+09
     3.08612E+01     1.33234E+00     3.14159E+00     1.39148E-20     4.22993E-02    -2.01767E+08     5.12991E+08     2.14882E+09
     3.08612E+01     1.34711E+00     3.14159E+00     1.40604E-20     4.34799E-02    -1.39014E+08     4.76180E+08     2.14594E+09
     3.08612E+01     1.36096E+00     3.14159E+00     1.42516E-20     4.47264E-02    -7.99586E+07     4.40716E+08     2.14204E+09
     3.08612E+01     1.37396E+00     3.14159E+00     1.44924E-20     4.61019E-02    -3.13798E+07     4.05159E+08     2.13791E+09
     3.08612E+01     1.38615E+00     3.14159E+00     1.47541E-20     4.75011E-02     7.48659E+06     3.79192E+08     2.13312E+09
     3.08612E+01     1.39758E+00     3.14159E+00     1.50467E-20     4.89186E-02     4.28907E+07     3.67783E+08     2.12757E+09
     3.08612E+01     1.40831E+00     3.14159E+00     1.54054E-20     5.05646E-02     9.68570E+07     3.60757E+08     2.12107E+09
     3.08612E+01     1.41837E+00     3.14159E+00     1.58413E-20     5.25500E-02     1.74882E+08     3.39115E+08     2.11347E+09
     3.08612E+01     1.42781E+00     3.14159E+00     1.63418E-20     5.48883E-02     2.61998E+08     2.85763E+08     2.10472E+09
     3.08612E+01     1.43667E+00     3.14159E+00     1.68706E-20     5.75547E-02     2.97227E+08     2.08868E+08     2.09564E+09
     3.08612E+01     1.44498E+00     3.14159E+00     1.73117E-20     5.99160E-02     2.88480E+08     1.31989E+08     2.08679E+09
     3.08612E+01     1.45277E+00     3.14159E+00     1.76274E-20     6.17719E-02     2.58241E+08     6.63757E+07     2.07828E+09
     3.08612E+01     1.46008E+00     3.14159E+00     1.78429E-20     6.31463E-02     2.13428E+08     1.63291E+07     2.07018E+09
     3.08612E+01     1.46694E+00     3.14159E+00     1.80329E-20     6.41261E-02     1.64313E+08    -1.58904E+07     2.06183E+09
     3.08612E+01     1.47338E+00     3.14159E+00     1.85578E-20     6.48371E-02     1.24429E+08    -3.00760E+07     2.04824E+09
     3.08612E+01     1.47941E+00     3.14159E+00     2.12396E-20     6.54024E-02     8.95638E+07    -3.09918E+07     2.02517E+09
     3.08612E+01     1.48507E+00     3.14159E+00     3.22151E-20     6.59933E-02     5.41261E+07    -2.62607E+07     1.99668E+09
     3.08612E+01     1.49038E+00     3.14159E+00     6.45116E-20     6.68857E-02     3.27660E+07    -1.97892E+07     1.97812E+09
     3.08612E+01     1.49537E+00     3.14159E+00     1.45279E-19     6.85849E-02     1.81423E+07    -1.25714E+07     1.97169E+09
     3.08612E+01     1.50004E+00     3.14159E+00     3.20138E-19     7.19629E-02     7.09194E+06    -5.79303E+06     1.97043E+09
     3.08612E+01     1.50442E+00     3.14159E+00     6.14870E-19     7.80798E-02     9.61816E+05    -1.11437E+06     1.96928E+09
     3.08612E+01     1.50854E+00     3.14159E+00     1.17590E-18     8.87102E-02    -2.54038E+06     6.77658E+05     1.96748E+09
     3.08612E+01     1.51240E+00     3.14159E+00     2.31981E-18     1.07679E-01    -2.96068E+06     6.09691E+05     1.96340E+09
     3.08612E+01     1.51602E+00     3.14159E+00     4.49865E-18     1.41434E-01    -2.58640E+06     5.05481E+05     1.95847E+09
     3.08612E+01     1.51941E+00     3.14159E+00     7.77319E-18     1.96738E-01    -5.10293E+06     7.79860E+05     1.95406E+09
     3.08612E+01     1.52260E+00     3.14159E+00     1.27685E-17     2.80788E-01    -2.42135E+06     8.06097E+05     1.95055E+09
     3.08612E+01     1.52558E+00     3.14159E+00     2.09067E-17     4.05829E-01    -9.67867E+05     6.28739E+05     1.94699E+09
     3.08612E+01     1.52839E+00     3.14159E+00     3.38650E-17     5.91501E-01    -5.93069E+05     3.91485E+05     1.94335E+09
     3.08612E+01     1.53102E+00     3.14159E+00     5.42527E-17     8.63612E-01    -3.74241E+05     2.30354E+05     1.94000E+09
     3.08612E+01     1.53348E+00     3.14159E+00     8.58910E-17     1.25914E+00    -6.45904E+05     2.22310E+05     1.93726E+09
     3.08612E+01     1.53580E+00     3.14159E+00     1.34198E-16     1.82761E+00    -1.18602E+06     2.94074E+05     1.93508E+09
     3.08612E+01     1.53797E+00     3.14159E+00     2.05420E-16     2.63201E+00    -1.67530E+06     3.79866E+05     1.93333E+09
     3.08612E+01     1.54000E+00     3.14159E+00     3.07201E-16     3.74550E+00    -1.95356E+06     4.51984E+05     1.93184E+09
     3.08612E+01     1.54191E+00     3.14159E+00     4.49214E-16     5.25471E+00    -1.96155E+06     4.98760E+05     1.93055E+09
     3.08612E+01     1.54371E+00     3.14159E+00     6.43273E-16     7.25932E+00    -1.84045E+06     5.36341E+05     1.92942E+09
     3.08612E+01     1.54539E+00     3.14159E+00     9.03844E-16     9.87017E+00    -1.69048E+06     5.71998E+05     1.92840E+09
     3.08612E+01     1.54696E+00     3.14159E+00     1.24784E-15     1.32141E+01    -1.55875E+06     6.01072E+05     1.92748E+09
     3.08612E+01     1.54844E+00     3.14159E+00     1.69291E-15     1.74264E+01    -1.30599E+06     5.87382E+05     1.92664E+09
     3.08612E+01     1.54983E+00     3.14159E+00     2.25763E-15     2.26487E+01    -9.52741E+05     5.12246E+05     1.92589E+09
     3.08612E+01     1.55113E+00     3.14159E+00     2.96247E-15     2.90191E+01    -1.00268E+06     4.26167E+05     1.92522E+09
     3.08612E+01     1.55235E+00     3.14159E+00     3.83490E-15     3.66833E+01    -1.71946E+06     3.90228E+05     1.92460E+09
     3.08612E+01     1.55350E+00     3.14159E+00     4.92158E-15     4.58135E+01    -2.27521E+06     4.19848E+05     1.92396E+09