 TITLE= "ZEUSMP/2 FIELD DATA AT TIME:    1.99638930357585      yr "
 VARIABLES= "X","Y","Z","rho","e","V1","V2","V3"
 ZONE I=  100 , J=  160 , K=    1 , F=POINT
     3.02838E+01     4.86288E-02     3.14159E+00     1.60824E-21     2.32360E-03    -4.71998E+09     1.36571E+08     1.04012E+06
     3.02838E+01     1.42876E-01     3.14159E+00     1.50501E-21     2.09522E-03    -4.71809E+09     4.05348E+08     5.41774E+07
     3.02838E+01     2.31287E-01     3.14159E+00     1.36855E-21     1.83759E-03    -4.70475E+09     6.55035E+08     1.15287E+08
     3.02838E+01     3.14225E-01     3.14159E+00     1.26250E-21     1.68858E-03    -4.67545E+09     8.71031E+08     1.67270E+08
     3.02838E+01     3.92028E-01     3.14159E+00     1.23262E-21     1.64727E-03    -4.63274E+09     1.05379E+09     2.16814E+08
     3.02838E+01     4.65013E-01     3.14159E+00     1.26601E-21     1.72114E-03    -4.57879E+09     1.19622E+09     2.69325E+08
     3.02838E+01     5.33480E-01     3.14159E+00     1.41599E-21     2.06587E-03    -4.51710E+09     1.24980E+09     3.33784E+08
     3.02838E+01     5.97708E-01     3.14159E+00     1.65561E-21     2.63828E-03    -4.44779E+09     1.22845E+09     4.17143E+08
     3.02838E+01     6.57959E-01     3.14159E+00     1.98484E-21     3.45592E-03    -4.36418E+09     1.19591E+09     5.23383E+08
     3.02838E+01     7.14480E-01     3.14159E+00     2.32946E-21     4.30513E-03    -4.26467E+09     1.19153E+09     6.47861E+08
     3.02838E+01     7.67502E-01     3.14159E+00     2.63936E-21     5.04017E-03    -4.14575E+09     1.23713E+09     7.79488E+08
     3.02838E+01     8.17240E-01     3.14159E+00     2.87604E-21     5.56014E-03    -4.00924E+09     1.31714E+09     9.06638E+08
     3.02838E+01     8.63899E-01     3.14159E+00     3.07578E-21     6.02251E-03    -3.86109E+09     1.40137E+09     1.02439E+09
     3.02838E+01     9.07670E-01     3.14159E+00     3.31387E-21     6.65908E-03    -3.70222E+09     1.46085E+09     1.13522E+09
     3.02838E+01     9.48730E-01     3.14159E+00     3.59920E-21     7.51776E-03    -3.52368E+09     1.48323E+09     1.24228E+09
     3.02838E+01     9.87248E-01     3.14159E+00     3.89080E-21     8.46897E-03    -3.32570E+09     1.48018E+09     1.34836E+09
     3.02838E+01     1.02338E+00     3.14159E+00     4.17619E-21     9.45989E-03    -3.10590E+09     1.46636E+09     1.45503E+09
     3.02838E+01     1.05728E+00     3.14159E+00     4.44031E-21     1.04214E-02    -2.86001E+09     1.43945E+09     1.56170E+09
     3.02838E+01     1.08908E+00     3.14159E+00     4.70968E-21     1.14510E-02    -2.58515E+09     1.38710E+09     1.66682E+09
     3.02838E+01     1.11890E+00     3.14159E+00     5.04830E-21     1.28313E-02    -2.27675E+09     1.29011E+09     1.76895E+09
     3.02838E+01     1.14689E+00     3.14159E+00     5.51634E-21     1.48923E-02    -1.92481E+09     1.14486E+09     1.86607E+09
     3.02838E+01     1.17314E+00     3.14159E+00     6.09235E-21     1.76234E-02    -1.51960E+09     9.93758E+08     1.95321E+09
     3.02838E+01     1.19776E+00     3.14159E+00     6.49318E-21     1.96303E-02    -1.11737E+09     9.01863E+08     2.02255E+09
     3.02838E+01     1.22086E+00     3.14159E+00     6.63157E-21     2.03572E-02    -7.88523E+08     8.74799E+08     2.07030E+09
     3.02838E+01     1.24253E+00     3.14159E+00     6.71826E-21     2.08232E-02    -5.37135E+08     8.70122E+08     2.09589E+09
     3.02838E+01     1.26286E+00     3.14159E+00     6.81677E-21     2.13516E-02    -3.54174E+08     8.65342E+08     2.10764E+09
     3.02838E+01     1.28193E+00     3.14159E+00     6.93941E-21     2.20005E-02    -2.34990E+08     8.56318E+08     2.10703E+09
     3.02838E+01     1.29982E+00     3.14159E+00     7.08230E-21     2.27668E-02    -1.58886E+08     8.42792E+08     2.10457E+09
     3.02838E+01     1.31660E+00     3.14159E+00     7.23723E-21     2.36107E-02    -1.01794E+08     8.26348E+08     2.10046E+09
     3.02838E+01     1.33234E+00     3.14159E+00     7.39929E-21     2.45016E-02    -5.64458E+07     8.08414E+08     2.09528E+09
     3.02838E+01     1.34711E+00     3.14159E+00     7.56352E-21     2.54127E-02    -2.10129E+07     7.90026E+08     2.08956E+09
     3.02838E+01     1.36096E+00     3.14159E+00     7.72807E-21     2.63344E-02     9.05439E+06     7.65278E+08     2.08358E+09
     3.02838E+01     1.37396E+00     3.14159E+00     7.89777E-21     2.72991E-02     3.16937E+07     7.19356E+08     2.07754E+09
     3.02838E+01     1.38615E+00     3.14159E+00     8.09164E-21     2.84291E-02     5.82585E+07     6.42866E+08     2.07120E+09
     3.02838E+01     1.39758E+00     3.14159E+00     8.29702E-21     2.96673E-02     8.08522E+07     5.40675E+08     2.06435E+09
     3.02838E+01     1.40831E+00     3.14159E+00     8.49360E-21     3.08942E-02     9.15330E+07     4.27620E+08     2.05691E+09
     3.02838E+01     1.41837E+00     3.14159E+00     8.66241E-21     3.19736E-02     8.89899E+07     3.20264E+08     2.04901E+09
     3.02838E+01     1.42781E+00     3.14159E+00     8.79220E-21     3.28170E-02     8.07884E+07     2.28056E+08     2.04060E+09
     3.02838E+01     1.43667E+00     3.14159E+00     8.89121E-21     3.34622E-02     6.86999E+07     1.53363E+08     2.03155E+09
     3.02838E+01     1.44498E+00     3.14159E+00     8.96729E-21     3.39526E-02     5.56100E+07     9.58549E+07     2.02143E+09
     3.02838E+01     1.45277E+00     3.14159E+00     9.02989E-21     3.43360E-02     4.21029E+07     5.38545E+07     2.00909E+09
     3.02838E+01     1.46008E+00     3.14159E+00     9.08488E-21     3.46475E-02     2.45202E+07     2.71708E+07     1.99598E+09
     3.02838E+01     1.46694E+00     3.14159E+00     9.14044E-21     3.49035E-02     9.86224E+06     1.44352E+07     1.98815E+09
     3.02838E+01     1.47338E+00     3.14159E+00     9.20744E-21     3.51240E-02     8.55057E+06     8.32822E+06     1.98002E+09
     3.02838E+01     1.47941E+00     3.14159E+00     9.27945E-21     3.53208E-02     7.45189E+06     3.41642E+06     1.97080E+09
     3.02838E+01     1.48507E+00     3.14159E+00     9.34428E-21     3.54971E-02    -2.67335E+06     1.26770E+06     1.95800E+09
     3.02838E+01     1.49038E+00     3.14159E+00     1.10608E-20     3.56717E-02    -7.04766E+06     1.15998E+06     1.96673E+09
     3.02838E+01     1.49537E+00     3.14159E+00     2.11195E-20     3.59266E-02    -1.72873E+06     1.11348E+06     1.99321E+09
     3.02838E+01     1.50004E+00     3.14159E+00     4.53188E-20     3.64075E-02     1.35390E+06     1.02082E+06     2.01118E+09
     3.02838E+01     1.50442E+00     3.14159E+00     8.41227E-20     3.72717E-02     3.34896E+06     1.30178E+05     2.01894E+09
     3.02838E+01     1.50854E+00     3.14159E+00     1.26439E-19     3.85578E-02     3.34457E+06    -1.15638E+06     2.01863E+09
     3.02838E+01     1.51240E+00     3.14159E+00     1.81929E-19     4.02685E-02     3.00077E+06    -2.24100E+06     2.01635E+09
     3.02838E+01     1.51602E+00     3.14159E+00     3.41544E-19     4.29130E-02     2.68579E+06    -2.98226E+06     2.01506E+09
     3.02838E+01     1.51941E+00     3.14159E+00     6.52094E-19     4.74756E-02     2.02360E+06    -3.26749E+06     2.01243E+09
     3.02838E+01     1.52260E+00     3.14159E+00     1.09115E-18     5.47697E-02     1.20942E+06    -3.16074E+06     2.00765E+09
     3.02838E+01     1.52558E+00     3.14159E+00     1.67241E-18     6.53361E-02     6.21642E+05    -2.78130E+06     2.00268E+09
     3.02838E+01     1.52839E+00     3.14159E+00     2.40407E-18     7.95733E-02    -1.70921E+05    -2.17731E+06     1.99868E+09
     3.02838E+01     1.53102E+00     3.14159E+00     3.42648E-18     9.81402E-02    -1.43298E+06    -1.38771E+06     1.99498E+09
     3.02838E+01     1.53348E+00     3.14159E+00     5.44981E-18     1.24008E-01    -2.93893E+06    -5.02344E+05     1.98999E+09
     3.02838E+01     1.53580E+00     3.14159E+00     9.05703E-18     1.62723E-01    -3.36596E+06     3.43728E+05     1.98449E+09
     3.02838E+01     1.53797E+00     3.14159E+00     1.43521E-17     2.19787E-01    -2.42728E+06     9.55976E+05     1.97974E+09
     3.02838E+01     1.54000E+00     3.14159E+00     2.14908E-17     3.00117E-01    -1.59226E+06     1.23087E+06     1.97632E+09
     3.02838E+01     1.54191E+00     3.14159E+00     3.16952E-17     4.09635E-01    -1.23798E+06     1.32235E+06     1.97374E+09
     3.02838E+01     1.54371E+00     3.14159E+00     4.70545E-17     5.58451E-01    -1.02427E+06     1.36519E+06     1.97148E+09
     3.02838E+01     1.54539E+00     3.14159E+00     6.89579E-17     7.60209E-01    -6.97855E+05     1.36651E+06     1.96953E+09
     3.02838E+01     1.54696E+00     3.14159E+00     9.77269E-17     1.02674E+00    -3.08892E+05     1.33089E+06     1.96793E+09
     3.02838E+01     1.54844E+00     3.14159E+00     1.33917E-16     1.36743E+00     5.19087E+04     1.26608E+06     1.96661E+09
     3.02838E+01     1.54983E+00     3.14159E+00     1.79188E-16     1.79408E+00     2.88061E+05     1.19924E+06     1.96549E+09
     3.02838E+01     1.55113E+00     3.14159E+00     2.35728E-16     2.31641E+00     5.40030E+05     1.12847E+06     1.96450E+09
     3.02838E+01     1.55235E+00     3.14159E+00     3.05989E-16     2.94722E+00     7.31110E+05     1.04604E+06     1.96356E+09
     3.02838E+01     1.55350E+00     3.14159E+00     3.90649E-16     3.69801E+00     7.42353E+05     9.61638E+05     1.96264E+09
     3.02838E+01     1.55457E+00     3.14159E+00     4.88466E-16     4.57536E+00     6.08588E+05     8.96732E+05     1.96184E+09
     3.02838E+01     1.55558E+00     3.14159E+00     6.00696E-16     5.58220E+00     5.69035E+05     8.54626E+05     1.96118E+09
     3.02838E+01     1.55653E+00     3.14159E+00     7.31170E-16     6.72310E+00     5.56269E+05     8.23952E+05     1.96063E+09
     3.02838E+01     1.55742E+00     3.14159E+00     8.85727E-16     8.00803E+00     5.92415E+05     7.94379E+05     1.96040E+09
     3.02838E+01     1.55825E+00     3.14159E+00     1.08292E-15     9.46042E+00     8.75699E+05     7.53042E+05     1.96003E+09
     3.02838E+01     1.55903E+00     3.14159E+00     1.32078E-15     1.11073E+01     9.42710E+05     7.03300E+05     1.95929E+09
     3.02838E+01     1.55976E+00     3.14159E+00     1.56436E-15     1.29434E+01     3.45554E+05     6.80392E+05     1.95840E+09
     3.02838E+01     1.56045E+00     3.14159E+00     1.80723E-15     1.49373E+01    -6.78384E+05     7.19070E+05     1.95760E+09
     3.02838E+01     1.56109E+00     3.14159E+00     2.06931E-15     1.70680E+01    -1.07920E+06     8.01794E+05     1.95683E+09
     3.02838E+01     1.56170E+00     3.14159E+00     2.36647E-15     1.93361E+01    -8.09301E+05     8.76451E+05     1.95617E+09
     3.02838E+01     1.56226E+00     3.14159E+00     2.70172E-15     2.17498E+01     1.35099E+05     9.00925E+05     1.95559E+09
     3.02838E+01     1.56280E+00     3.14159E+00     3.07835E-15     2.43142E+01     1.17743E+06     8.62725E+05     1.95483E+09
     3.02838E+01     1.56330E+00     3.14159E+00     3.46456E-15     2.70196E+01     1.89208E+06     7.82047E+05     1.95381E+09
     3.02838E+01     1.56376E+00     3.14159E+00     3.87438E-15     2.98484E+01     1.88126E+06     6.92716E+05     1.95283E+09
     3.02838E+01     1.56420E+00     3.14159E+00     4.40047E-15     3.28221E+01     1.58390E+06     6.20551E+05     1.95215E+09
     3.02838E+01     1.56461E+00     3.14159E+00     5.20476E-15     3.60411E+01     1.58463E+06     5.63600E+05     1.95173E+09
     3.02838E+01     1.56500E+00     3.14159E+00     6.31846E-15     3.96446E+01     2.28016E+06     4.98699E+05     1.95112E+09
     3.02838E+01     1.56536E+00     3.14159E+00     7.49938E-15     4.36770E+01     2.91860E+06     4.14367E+05     1.95012E+09
     3.02838E+01     1.56570E+00     3.14159E+00     8.58587E-15     4.80586E+01     3.03271E+06     3.25331E+05     1.94906E+09
     3.02838E+01     1.56602E+00     3.14159E+00     9.54245E-15     5.26694E+01     3.07928E+06     2.43052E+05     1.94803E+09
     3.02838E+01     1.56632E+00     3.14159E+00     1.03985E-14     5.74054E+01     3.17202E+06     1.67209E+05     1.94701E+09
     3.02838E+01     1.56660E+00     3.14159E+00     1.11911E-14     6.21948E+01     3.16111E+06     9.76347E+04     1.94600E+09
     3.02838E+01     1.56687E+00     3.14159E+00     1.20617E-14     6.70143E+01     2.92170E+06     3.79767E+04     1.94496E+09
     3.02838E+01     1.56711E+00     3.14159E+00     1.30556E-14     7.18801E+01     2.48594E+06    -7.34054E+03     1.94413E+09
     3.02838E+01     1.56734E+00     3.14159E+00     1.42599E-14     7.68261E+01     2.17357E+06    -3.93486E+04     1.94360E+09
     3.02838E+01     1.56756E+00     3.14159E+00     1.57056E-14     8.18990E+01     2.09487E+06    -6.40715E+04     1.94323E+09
     3.02838E+01     1.56777E+00     3.14159E+00     1.73474E-14     8.71315E+01     2.16802E+06    -8.67441E+04     1.94276E+09
     3.02838E+01     1.56796E+00     3.14159E+00     1.91105E-14     9.25293E+01     2.35132E+06    -1.10303E+05     1.94206E+09
     3.02838E+01     1.56814E+00     3.14159E+00     2.09381E-14     9.80759E+01     2.59381E+06    -1.36198E+05     1.94100E+09
     3.02838E+01     1.56831E+00     3.14159E+00     2.27788E-14     1.03741E+02     2.74893E+06    -1.63720E+05     1.93954E+09
     3.02838E+01     1.56846E+00     3.14159E+00     2.45564E-14     1.09481E+02     2.57246E+06    -1.89000E+05     1.93786E+09
     3.02838E+01     1.56861E+00     3.14159E+00     2.61927E-14     1.15240E+02     1.88465E+06    -2.05606E+05     1.93628E+09
     3.02838E+01     1.56875E+00     3.14159E+00     2.76794E-14     1.20962E+02     6.52249E+05    -2.06893E+05     1.93513E+09
     3.02838E+01     1.56888E+00     3.14159E+00     2.91070E-14     1.26608E+02    -1.83729E+06    -1.86189E+05     1.93467E+09
     3.02838E+01     1.56900E+00     3.14159E+00     3.06923E-14     1.32174E+02    -5.06879E+06    -1.40137E+05     1.93497E+09
     3.02838E+01     1.56912E+00     3.14159E+00     3.26058E-14     1.37690E+02    -7.92614E+06    -7.28631E+04     1.93595E+09
     3.02838E+01     1.56923E+00     3.14159E+00     3.48766E-14     1.43195E+02    -1.02078E+07     7.94189E+03     1.93736E+09
     3.02838E+01     1.56933E+00     3.14159E+00     3.73627E-14     1.48714E+02    -1.18120E+07     9.49561E+04     1.93880E+09
     3.02838E+01     1.56942E+00     3.14159E+00     3.99124E-14     1.54242E+02    -1.24227E+07     1.80935E+05     1.93992E+09
     3.02838E+01     1.56951E+00     3.14159E+00     4.25133E-14     1.59766E+02    -1.19016E+07     2.58995E+05     1.94067E+09
     3.02838E+01     1.56959E+00     3.14159E+00     4.51931E-14     1.65273E+02    -1.00286E+07     3.23059E+05     1.94107E+09
     3.02838E+01     1.56967E+00     3.14159E+00     4.79888E-14     1.70757E+02    -7.39921E+06     3.69422E+05     1.94122E+09
     3.02838E+01     1.56975E+00     3.14159E+00     5.09244E-14     1.76213E+02    -5.03500E+06     3.99204E+05     1.94128E+09
     3.02838E+01     1.56981E+00     3.14159E+00     5.39714E-14     1.81638E+02    -3.51898E+06     4.17202E+05     1.94136E+09
     3.02838E+01     1.56988E+00     3.14159E+00     5.69965E-14     1.87018E+02    -2.88449E+06     4.28798E+05     1.94152E+09
     3.02838E+01     1.56994E+00     3.14159E+00     5.98587E-14     1.92330E+02    -2.82452E+06     4.37884E+05     1.94166E+09
     3.02838E+01     1.57000E+00     3.14159E+00     6.24492E-14     1.97542E+02    -2.73825E+06     4.45878E+05     1.94167E+09
     3.02838E+01     1.57005E+00     3.14159E+00     6.47914E-14     2.02625E+02    -2.41655E+06     4.52415E+05     1.94160E+09
     3.02838E+01     1.57010E+00     3.14159E+00     6.69948E-14     2.07562E+02    -1.73542E+06     4.56662E+05     1.94141E+09
     3.02838E+01     1.57015E+00     3.14159E+00     6.91634E-14     2.12345E+02    -5.01696E+05     4.57470E+05     1.94106E+09
     3.02838E+01     1.57019E+00     3.14159E+00     7.13386E-14     2.16973E+02     7.18982E+05     4.53857E+05     1.94059E+09
     3.02838E+01     1.57023E+00     3.14159E+00     7.35998E-14     2.21449E+02     2.03035E+06     4.45259E+05     1.94001E+09
     3.02838E+01     1.57027E+00     3.14159E+00     7.59575E-14     2.25780E+02     3.64104E+06     4.31170E+05     1.93932E+09
     3.02838E+01     1.57031E+00     3.14159E+00     7.84104E-14     2.29972E+02     5.30682E+06     4.11637E+05     1.93851E+09
     3.02838E+01     1.57034E+00     3.14159E+00     8.09477E-14     2.34030E+02     6.95828E+06     3.87360E+05     1.93757E+09
     3.02838E+01     1.57037E+00     3.14159E+00     8.35619E-14     2.37958E+02     8.54618E+06     3.59178E+05     1.93652E+09
     3.02838E+01     1.57040E+00     3.14159E+00     8.62499E-14     2.41760E+02     1.00112E+07     3.28000E+05     1.93535E+09
     3.02838E+01     1.57043E+00     3.14159E+00     8.90154E-14     2.45440E+02     1.13024E+07     2.94781E+05     1.93408E+09
     3.02838E+01     1.57046E+00     3.14159E+00     9.18736E-14     2.49002E+02     1.23951E+07     2.60446E+05     1.93272E+09
     3.02838E+01     1.57048E+00     3.14159E+00     9.48592E-14     2.52449E+02     1.32801E+07     2.25821E+05     1.93130E+09
     3.02838E+01     1.57051E+00     3.14159E+00     9.80365E-14     2.55789E+02     1.39448E+07     1.91625E+05     1.92985E+09
     3.02838E+01     1.57053E+00     3.14159E+00     1.01505E-13     2.59028E+02     1.43496E+07     1.58508E+05     1.92845E+09
     3.02838E+01     1.57055E+00     3.14159E+00     1.05393E-13     2.62178E+02     1.44027E+07     1.27146E+05     1.92713E+09
     3.02838E+01     1.57057E+00     3.14159E+00     1.09825E-13     2.65250E+02     1.39861E+07     9.82975E+04     1.92590E+09
     3.02838E+01     1.57058E+00     3.14159E+00     1.14877E-13     2.68258E+02     1.30062E+07     7.27707E+04     1.92467E+09
     3.02838E+01     1.57060E+00     3.14159E+00     1.20604E-13     2.71214E+02     1.13075E+07     5.14256E+04     1.92340E+09
     3.02838E+01     1.57062E+00     3.14159E+00     1.27241E-13     2.74132E+02     8.93236E+06     3.50308E+04     1.92206E+09
     3.02838E+01     1.57063E+00     3.14159E+00     1.35490E-13     2.77033E+02     6.25521E+06     2.38345E+04     1.92073E+09
     3.02838E+01     1.57065E+00     3.14159E+00     1.46689E-13     2.79954E+02     3.87049E+06     1.72523E+04     1.91949E+09
     3.02838E+01     1.57066E+00     3.14159E+00     1.62838E-13     2.82959E+02     2.29144E+06     1.39620E+04     1.91828E+09
     3.02838E+01     1.57067E+00     3.14159E+00     1.86635E-13     2.86142E+02     1.49057E+06     1.25058E+04     1.91705E+09
     3.02838E+01     1.57068E+00     3.14159E+00     2.21736E-13     2.89629E+02     1.09449E+06     1.19105E+04     1.91587E+09
     3.02838E+01     1.57069E+00     3.14159E+00     2.73562E-13     2.93597E+02     9.49122E+05     1.16814E+04     1.91485E+09
     3.02838E+01     1.57070E+00     3.14159E+00     3.48386E-13     2.98269E+02     9.86766E+05     1.15251E+04     1.91408E+09
     3.02838E+01     1.57071E+00     3.14159E+00     4.45241E-13     3.03862E+02     1.11458E+06     1.12641E+04     1.91377E+09
     3.02838E+01     1.57072E+00     3.14159E+00     5.33374E-13     3.10329E+02     1.18999E+06     1.08744E+04     1.91369E+09
     3.02838E+01     1.57073E+00     3.14159E+00     5.72262E-13     3.17183E+02     1.33750E+06     1.04117E+04     1.91349E+09
     3.02838E+01     1.57074E+00     3.14159E+00     5.88603E-13     3.23934E+02     1.95113E+06     9.69014E+03     1.91344E+09
     3.02838E+01     1.57075E+00     3.14159E+00     6.38608E-13     3.30627E+02     3.03061E+06     8.36400E+03     1.91421E+09
     3.02838E+01     1.57075E+00     3.14159E+00     7.86468E-13     3.37917E+02     3.79042E+06     6.45215E+03     1.91617E+09
     3.02838E+01     1.57076E+00     3.14159E+00     9.64392E-13     3.46319E+02     3.98804E+06     4.31638E+03     1.91759E+09
     3.02838E+01     1.57077E+00     3.14159E+00     1.15612E-12     3.55864E+02     3.47282E+06     2.41641E+03     1.91855E+09
     3.02838E+01     1.57077E+00     3.14159E+00     1.41749E-12     3.66730E+02     2.88336E+06     1.00229E+03     1.91884E+09
     3.02838E+01     1.57078E+00     3.14159E+00     1.80543E-12     3.79494E+02     2.28781E+06     3.27135E+01     1.91872E+09
     3.02838E+01     1.57078E+00     3.14159E+00     2.61777E-12     3.95926E+02     1.61468E+06    -5.88370E+02     1.91762E+09
     3.02838E+01     1.57079E+00     3.14159E+00     6.54992E-12     4.27874E+02     4.47573E+05    -7.58338E+02     1.91558E+09
     3.02838E+01     1.57079E+00     3.14159E+00     1.29504E-10     8.72607E+02    -4.53745E+06    -4.36457E+02     1.92028E+09
     3.02838E+01     1.57079E+00     3.14159E+00     6.27737E-10     3.19448E+03     2.12405E+03    -1.29752E+02     1.92596E+09
     3.02838E+01     1.57080E+00     3.14159E+00     9.99999E-10     7.87619E+03     3.12710E+03    -3.79798E+01     1.92606E+09
     3.08612E+01     4.86288E-02     3.14159E+00     1.58198E-21     2.26189E-03    -4.68181E+09     1.32463E+08     1.18711E+06
     3.08612E+01     1.42876E-01     3.14159E+00     1.47714E-21     2.03283E-03    -4.68049E+09     3.94015E+08     5.57981E+07
     3.08612E+01     2.31287E-01     3.14159E+00     1.33927E-21     1.77737E-03    -4.66760E+09     6.39405E+08     1.16987E+08
     3.08612E+01     3.14225E-01     3.14159E+00     1.23421E-21     1.63015E-03    -4.63860E+09     8.53424E+08     1.68808E+08
     3.08612E+01     3.92028E-01     3.14159E+00     1.20675E-21     1.59033E-03    -4.59594E+09     1.03494E+09     2.18599E+08
     3.08612E+01     4.65013E-01     3.14159E+00     1.24084E-21     1.66403E-03    -4.54177E+09     1.17585E+09     2.71780E+08
     3.08612E+01     5.33480E-01     3.14159E+00     1.38921E-21     1.99854E-03    -4.47983E+09     1.22853E+09     3.37352E+08
     3.08612E+01     5.97708E-01     3.14159E+00     1.62547E-21     2.54996E-03    -4.41015E+09     1.20784E+09     4.22102E+08
     3.08612E+01     6.57959E-01     3.14159E+00     1.95242E-21     3.34080E-03    -4.32583E+09     1.17505E+09     5.29532E+08
     3.08612E+01     7.14480E-01     3.14159E+00     2.29450E-21     4.16667E-03    -4.22559E+09     1.16891E+09     6.54689E+08
     3.08612E+01     7.67502E-01     3.14159E+00     2.60293E-21     4.88905E-03    -4.10549E+09     1.21157E+09     7.86316E+08
     3.08612E+01     8.17240E-01     3.14159E+00     2.83765E-21     5.40720E-03    -3.96767E+09     1.28689E+09     9.13067E+08
     3.08612E+01     8.63899E-01     3.14159E+00     3.03441E-21     5.86404E-03    -3.81858E+09     1.36573E+09     1.03058E+09
     3.08612E+01     9.07670E-01     3.14159E+00     3.27180E-21     6.49765E-03    -3.65762E+09     1.41817E+09     1.14171E+09
     3.08612E+01     9.48730E-01     3.14159E+00     3.54705E-21     7.31930E-03    -3.47628E+09     1.43329E+09     1.24967E+09
     3.08612E+01     9.87248E-01     3.14159E+00     3.82856E-21     8.22918E-03    -3.27488E+09     1.42304E+09     1.35759E+09
     3.08612E+01     1.02338E+00     3.14159E+00     4.10141E-21     9.16516E-03    -3.05034E+09     1.39940E+09     1.46698E+09
     3.08612E+01     1.05728E+00     3.14159E+00     4.34421E-21     1.00340E-02    -2.79880E+09     1.36144E+09     1.57681E+09
     3.08612E+01     1.08908E+00     3.14159E+00     4.57714E-21     1.09042E-02    -2.51897E+09     1.29986E+09     1.68487E+09
     3.08612E+01     1.11890E+00     3.14159E+00     4.85237E-21     1.19953E-02    -2.20956E+09     1.20050E+09     1.78885E+09
     3.08612E+01     1.14689E+00     3.14159E+00     5.23257E-21     1.36131E-02    -1.86445E+09     1.05922E+09     1.88546E+09
     3.08612E+01     1.17314E+00     3.14159E+00     5.71920E-21     1.58328E-02    -1.47889E+09     8.98064E+08     1.96947E+09
     3.08612E+01     1.19776E+00     3.14159E+00     6.16935E-21     1.80206E-02    -1.08967E+09     7.61716E+08     2.03567E+09
     3.08612E+01     1.22086E+00     3.14159E+00     6.43601E-21     1.93845E-02    -7.58558E+08     6.68944E+08     2.08087E+09
     3.08612E+01     1.24253E+00     3.14159E+00     6.61446E-21     2.03150E-02    -5.05090E+08     5.98606E+08     2.10261E+09
     3.08612E+01     1.26286E+00     3.14159E+00     6.78259E-21     2.12114E-02    -3.22097E+08     5.31379E+08     2.10160E+09
     3.08612E+01     1.28193E+00     3.14159E+00     6.95402E-21     2.21816E-02    -2.08314E+08     4.69466E+08     2.09826E+09
     3.08612E+01     1.29982E+00     3.14159E+00     7.11124E-21     2.31182E-02    -1.39190E+08     4.21478E+08     2.09237E+09
     3.08612E+01     1.31660E+00     3.14159E+00     7.26341E-21     2.40088E-02    -8.04669E+07     3.80559E+08     2.08487E+09
     3.08612E+01     1.33234E+00     3.14159E+00     7.42611E-21     2.49340E-02    -3.48375E+07     3.39171E+08     2.07728E+09
     3.08612E+01     1.34711E+00     3.14159E+00     7.59081E-21     2.58563E-02    -6.87935E+06     3.04917E+08     2.06980E+09
     3.08612E+01     1.36096E+00     3.14159E+00     7.73689E-21     2.66719E-02     1.07058E+07     2.93546E+08     2.06271E+09
     3.08612E+01     1.37396E+00     3.14159E+00     7.88868E-21     2.75055E-02     5.22481E+07     2.99617E+08     2.05624E+09
     3.08612E+01     1.38615E+00     3.14159E+00     8.07103E-21     2.85014E-02     1.25644E+08     2.92823E+08     2.05001E+09
     3.08612E+01     1.39758E+00     3.14159E+00     8.28547E-21     2.97019E-02     2.04179E+08     2.52215E+08     2.04348E+09
     3.08612E+01     1.40831E+00     3.14159E+00     8.51258E-21     3.10410E-02     2.37163E+08     1.87718E+08     2.03657E+09
     3.08612E+01     1.41837E+00     3.14159E+00     8.69472E-21     3.21969E-02     2.34679E+08     1.20846E+08     2.02910E+09
     3.08612E+01     1.42781E+00     3.14159E+00     8.83192E-21     3.31241E-02     2.10576E+08     6.24242E+07     2.02063E+09
     3.08612E+01     1.43667E+00     3.14159E+00     8.93169E-21     3.38154E-02     1.73161E+08     1.87898E+07     2.01018E+09
     3.08612E+01     1.44498E+00     3.14159E+00     9.00916E-21     3.43119E-02     1.33421E+08    -9.28016E+06     1.99354E+09
     3.08612E+01     1.45277E+00     3.14159E+00     9.09844E-21     3.46778E-02     9.11152E+07    -2.29594E+07     1.96806E+09
     3.08612E+01     1.46008E+00     3.14159E+00     9.49878E-21     3.49705E-02     4.34244E+07    -2.44205E+07     1.95962E+09
     3.08612E+01     1.46694E+00     3.14159E+00     1.20911E-20     3.52621E-02     1.17442E+07    -1.98591E+07     1.96093E+09
     3.08612E+01     1.47338E+00     3.14159E+00     2.07734E-20     3.56619E-02     2.68867E+06    -1.26251E+07     1.97892E+09
     3.08612E+01     1.47941E+00     3.14159E+00     4.04062E-20     3.63313E-02     3.37742E+06    -4.57675E+06     1.99129E+09
     3.08612E+01     1.48507E+00     3.14159E+00     7.78279E-20     3.75017E-02    -1.79469E+06    -1.02080E+06     1.99948E+09
     3.08612E+01     1.49038E+00     3.14159E+00     1.62401E-19     3.96695E-02    -1.42311E+06    -1.92324E+06     2.00285E+09
     3.08612E+01     1.49537E+00     3.14159E+00     3.04987E-19     4.35037E-02     1.29358E+06    -3.28044E+06     2.00206E+09
     3.08612E+01     1.50004E+00     3.14159E+00     5.24646E-19     4.96518E-02     3.67998E+06    -3.77798E+06     1.99846E+09
     3.08612E+01     1.50442E+00     3.14159E+00     8.86092E-19     5.90600E-02     5.47416E+06    -3.55844E+06     1.99213E+09
     3.08612E+01     1.50854E+00     3.14159E+00     1.49468E-18     7.33669E-02     6.32598E+06    -3.28284E+06     1.98488E+09
     3.08612E+01     1.51240E+00     3.14159E+00     2.52779E-18     9.52906E-02     5.79730E+06    -3.32189E+06     1.97773E+09
     3.08612E+01     1.51602E+00     3.14159E+00     4.22313E-18     1.28826E-01     3.59989E+06    -3.00460E+06     1.97081E+09
     3.08612E+01     1.51941E+00     3.14159E+00     6.86221E-18     1.78880E-01     1.61468E+06    -2.11217E+06     1.96428E+09
     3.08612E+01     1.52260E+00     3.14159E+00     1.11082E-17     2.52494E-01     3.57259E+05    -1.07088E+06     1.95818E+09
     3.08612E+01     1.52558E+00     3.14159E+00     1.78716E-17     3.60125E-01    -2.18578E+05    -2.06470E+05     1.95289E+09
     3.08612E+01     1.52839E+00     3.14159E+00     2.84836E-17     5.16918E-01    -7.00728E+05     3.23043E+05     1.94827E+09
     3.08612E+01     1.53102E+00     3.14159E+00     4.49780E-17     7.43141E-01    -1.01140E+06     5.12344E+05     1.94412E+09
     3.08612E+01     1.53348E+00     3.14159E+00     7.02677E-17     1.06724E+00    -1.48909E+06     4.16434E+05     1.94059E+09
     3.08612E+01     1.53580E+00     3.14159E+00     1.07735E-16     1.52536E+00    -1.62153E+06     1.79393E+05     1.93775E+09
     3.08612E+01     1.53797E+00     3.14159E+00     1.62373E-16     2.16202E+00    -1.22679E+06     1.13725E+04     1.93542E+09
     3.08612E+01     1.54000E+00     3.14159E+00     2.39768E-16     3.03133E+00    -8.59192E+05    -5.29475E+04     1.93355E+09
     3.08612E+01     1.54191E+00     3.14159E+00     3.45604E-16     4.19494E+00    -6.78223E+05    -7.22940E+04     1.93205E+09
     3.08612E+01     1.54371E+00     3.14159E+00     4.86364E-16     5.71514E+00    -4.79111E+05    -9.03192E+04     1.93081E+09
     3.08612E+01     1.54539E+00     3.14159E+00     6.71949E-16     7.66501E+00    -1.93338E+05    -1.26128E+05     1.92969E+09
     3.08612E+01     1.54696E+00     3.14159E+00     9.14435E-16     1.01255E+01     1.17060E+05    -1.65182E+05     1.92864E+09
     3.08612E+01     1.54844E+00     3.14159E+00     1.22726E-15     1.31907E+01     4.22143E+05    -1.99013E+05     1.92767E+09
     3.08612E+01     1.54983E+00     3.14159E+00     1.62330E-15     1.69560E+01     7.08264E+05    -2.25709E+05     1.92679E+09
     3.08612E+01     1.55113E+00     3.14159E+00     2.11557E-15     2.15159E+01     9.59806E+05    -2.35838E+05     1.92600E+09
     3.08612E+01     1.55235E+00     3.14159E+00     2.71880E-15     2.69643E+01     1.15395E+06    -2.28379E+05     1.92526E+09
     3.08612E+01     1.55350E+00     3.14159E+00     3.45291E-15     3.33985E+01     1.22247E+06    -2.18522E+05     1.92456E+09