 TITLE= "ZEUSMP/2 FIELD DATA AT TIME:   0.000000000000000E+000 yr "
 VARIABLES= "X","Y","Z","rho","e","V1","V2","V3"
 ZONE I=  100 , J=  160 , K=    1 , F=POINT
     3.02838E+01     4.86288E-02     3.14159E+00     1.00000E-22     7.60809E-09     0.00000E+00     0.00000E+00     9.36250E+07
     3.02838E+01     1.42876E-01     3.14159E+00     1.00000E-22     3.39788E-09     0.00000E+00     0.00000E+00     2.74252E+08
     3.02838E+01     2.31287E-01     3.14159E+00     1.00000E-22     2.37746E-09     0.00000E+00     0.00000E+00     4.41512E+08
     3.02838E+01     3.14225E-01     3.14159E+00     1.00000E-22     1.90005E-09     0.00000E+00     0.00000E+00     5.95305E+08
     3.02838E+01     3.92028E-01     3.14159E+00     1.00000E-22     1.62075E-09     0.00000E+00     0.00000E+00     7.35876E+08
     3.02838E+01     4.65013E-01     3.14159E+00     1.00000E-22     1.43729E-09     0.00000E+00     0.00000E+00     8.63712E+08
     3.02838E+01     5.33480E-01     3.14159E+00     1.00000E-22     1.30791E-09     0.00000E+00     0.00000E+00     9.79465E+08
     3.02838E+01     5.97708E-01     3.14159E+00     1.00000E-22     1.21222E-09     0.00000E+00     0.00000E+00     1.08389E+09
     3.02838E+01     6.57959E-01     3.14159E+00     1.00000E-22     1.13899E-09     0.00000E+00     0.00000E+00     1.17779E+09
     3.02838E+01     7.14480E-01     3.14159E+00     1.00000E-22     1.08150E-09     0.00000E+00     0.00000E+00     1.26200E+09
     3.02838E+01     7.67502E-01     3.14159E+00     1.00000E-22     1.03547E-09     0.00000E+00     0.00000E+00     1.33734E+09
     3.02838E+01     8.17240E-01     3.14159E+00     1.00000E-22     9.98057E-10     0.00000E+00     0.00000E+00     1.40460E+09
     3.02838E+01     8.63899E-01     3.14159E+00     1.00000E-22     9.67261E-10     0.00000E+00     0.00000E+00     1.46454E+09
     3.02838E+01     9.07670E-01     3.14159E+00     1.00000E-22     9.41658E-10     0.00000E+00     0.00000E+00     1.51787E+09
     3.02838E+01     9.48730E-01     3.14159E+00     1.00000E-22     9.20193E-10     0.00000E+00     0.00000E+00     1.56526E+09
     3.02838E+01     9.87248E-01     3.14159E+00     1.00000E-22     9.02075E-10     0.00000E+00     0.00000E+00     1.60732E+09
     3.02838E+01     1.02338E+00     3.14159E+00     1.00000E-22     8.86691E-10     0.00000E+00     0.00000E+00     1.64461E+09
     3.02838E+01     1.05728E+00     3.14159E+00     1.00000E-22     8.73566E-10     0.00000E+00     0.00000E+00     1.67764E+09
     3.02838E+01     1.08908E+00     3.14159E+00     1.00000E-22     8.62321E-10     0.00000E+00     0.00000E+00     1.70687E+09
     3.02838E+01     1.11890E+00     3.14159E+00     1.00000E-22     8.52652E-10     0.00000E+00     0.00000E+00     1.73273E+09
     3.02838E+01     1.14689E+00     3.14159E+00     1.00000E-22     8.44314E-10     0.00000E+00     0.00000E+00     1.75558E+09
     3.02838E+01     1.17314E+00     3.14159E+00     1.00000E-22     8.37105E-10     0.00000E+00     0.00000E+00     1.77577E+09
     3.02838E+01     1.19776E+00     3.14159E+00     1.00000E-22     8.30857E-10     0.00000E+00     0.00000E+00     1.79360E+09
     3.02838E+01     1.22086E+00     3.14159E+00     1.00000E-22     8.25432E-10     0.00000E+00     0.00000E+00     1.80933E+09
     3.02838E+01     1.24253E+00     3.14159E+00     1.00000E-22     8.20713E-10     0.00000E+00     0.00000E+00     1.82321E+09
     3.02838E+01     1.26286E+00     3.14159E+00     1.00000E-22     8.16603E-10     0.00000E+00     0.00000E+00     1.83546E+09
     3.02838E+01     1.28193E+00     3.14159E+00     1.00000E-22     8.13019E-10     0.00000E+00     0.00000E+00     1.84626E+09
     3.02838E+01     1.29982E+00     3.14159E+00     1.00000E-22     8.09889E-10     0.00000E+00     0.00000E+00     1.85578E+09
     3.02838E+01     1.31660E+00     3.14159E+00     1.00000E-22     8.07154E-10     0.00000E+00     0.00000E+00     1.86417E+09
     3.02838E+01     1.33234E+00     3.14159E+00     1.00000E-22     8.04761E-10     0.00000E+00     0.00000E+00     1.87156E+09
     3.02838E+01     1.34711E+00     3.14159E+00     1.00000E-22     8.02667E-10     0.00000E+00     0.00000E+00     1.87807E+09
     3.02838E+01     1.36096E+00     3.14159E+00     1.00000E-22     8.00832E-10     0.00000E+00     0.00000E+00     1.88381E+09
     3.02838E+01     1.37396E+00     3.14159E+00     1.00000E-22     7.99224E-10     0.00000E+00     0.00000E+00     1.88887E+09
     3.02838E+01     1.38615E+00     3.14159E+00     1.00000E-22     7.97815E-10     0.00000E+00     0.00000E+00     1.89332E+09
     3.02838E+01     1.39758E+00     3.14159E+00     1.00000E-22     7.96578E-10     0.00000E+00     0.00000E+00     1.89724E+09
     3.02838E+01     1.40831E+00     3.14159E+00     1.00000E-22     7.95493E-10     0.00000E+00     0.00000E+00     1.90069E+09
     3.02838E+01     1.41837E+00     3.14159E+00     1.00000E-22     7.94540E-10     0.00000E+00     0.00000E+00     1.90373E+09
     3.02838E+01     1.42781E+00     3.14159E+00     1.00000E-22     7.93703E-10     0.00000E+00     0.00000E+00     1.90641E+09
     3.02838E+01     1.43667E+00     3.14159E+00     1.00000E-22     7.92968E-10     0.00000E+00     0.00000E+00     1.90876E+09
     3.02838E+01     1.44498E+00     3.14159E+00     1.00000E-22     7.92323E-10     0.00000E+00     0.00000E+00     1.91083E+09
     3.02838E+01     1.45277E+00     3.14159E+00     1.00000E-22     7.91756E-10     0.00000E+00     0.00000E+00     1.91266E+09
     3.02838E+01     1.46008E+00     3.14159E+00     1.00000E-22     7.91257E-10     0.00000E+00     0.00000E+00     1.91427E+09
     3.02838E+01     1.46694E+00     3.14159E+00     1.00000E-22     7.90819E-10     0.00000E+00     0.00000E+00     1.91568E+09
     3.02838E+01     1.47338E+00     3.14159E+00     1.00000E-22     7.90434E-10     0.00000E+00     0.00000E+00     1.91693E+09
     3.02838E+01     1.47941E+00     3.14159E+00     1.00000E-22     7.90095E-10     0.00000E+00     0.00000E+00     1.91802E+09
     3.02838E+01     1.48507E+00     3.14159E+00     1.00000E-22     7.89797E-10     0.00000E+00     0.00000E+00     1.91899E+09
     3.02838E+01     1.49038E+00     3.14159E+00     1.00000E-22     7.89535E-10     0.00000E+00     0.00000E+00     1.91984E+09
     3.02838E+01     1.49537E+00     3.14159E+00     1.00000E-22     7.89305E-10     0.00000E+00     0.00000E+00     1.92058E+09
     3.02838E+01     1.50004E+00     3.14159E+00     1.00000E-22     7.89102E-10     0.00000E+00     0.00000E+00     1.92124E+09
     3.02838E+01     1.50442E+00     3.14159E+00     1.00000E-22     7.88924E-10     0.00000E+00     0.00000E+00     1.92182E+09
     3.02838E+01     1.50854E+00     3.14159E+00     1.00000E-22     7.88767E-10     0.00000E+00     0.00000E+00     1.92233E+09
     3.02838E+01     1.51240E+00     3.14159E+00     1.00000E-22     7.88630E-10     0.00000E+00     0.00000E+00     1.92278E+09
     3.02838E+01     1.51602E+00     3.14159E+00     1.00000E-22     7.88508E-10     0.00000E+00     0.00000E+00     1.92317E+09
     3.02838E+01     1.51941E+00     3.14159E+00     1.00000E-22     7.88402E-10     0.00000E+00     0.00000E+00     1.92352E+09
     3.02838E+01     1.52260E+00     3.14159E+00     1.00000E-22     7.88308E-10     0.00000E+00     0.00000E+00     1.92382E+09
     3.02838E+01     1.52558E+00     3.14159E+00     1.00000E-22     7.88225E-10     0.00000E+00     0.00000E+00     1.92409E+09
     3.02838E+01     1.52839E+00     3.14159E+00     1.00000E-22     7.88153E-10     0.00000E+00     0.00000E+00     1.92433E+09
     3.02838E+01     1.53102E+00     3.14159E+00     1.00000E-22     7.88089E-10     0.00000E+00     0.00000E+00     1.92454E+09
     3.02838E+01     1.53348E+00     3.14159E+00     1.00000E-22     7.88032E-10     0.00000E+00     0.00000E+00     1.92472E+09
     3.02838E+01     1.53580E+00     3.14159E+00     1.00000E-22     7.87983E-10     0.00000E+00     0.00000E+00     1.92488E+09
     3.02838E+01     1.53797E+00     3.14159E+00     1.00000E-22     7.87939E-10     0.00000E+00     0.00000E+00     1.92502E+09
     3.02838E+01     1.54000E+00     3.14159E+00     1.00000E-22     7.87901E-10     0.00000E+00     0.00000E+00     1.92515E+09
     3.02838E+01     1.54191E+00     3.14159E+00     1.00000E-22     7.87867E-10     0.00000E+00     0.00000E+00     1.92526E+09
     3.02838E+01     1.54371E+00     3.14159E+00     1.00000E-22     7.87838E-10     0.00000E+00     0.00000E+00     1.92535E+09
     3.02838E+01     1.54539E+00     3.14159E+00     1.00000E-22     7.87812E-10     0.00000E+00     0.00000E+00     1.92544E+09
     3.02838E+01     1.54696E+00     3.14159E+00     1.00000E-22     7.87789E-10     0.00000E+00     0.00000E+00     1.92551E+09
     3.02838E+01     1.54844E+00     3.14159E+00     1.00000E-22     7.87769E-10     0.00000E+00     0.00000E+00     1.92558E+09
     3.02838E+01     1.54983E+00     3.14159E+00     1.00000E-22     7.87751E-10     0.00000E+00     0.00000E+00     1.92564E+09
     3.02838E+01     1.55113E+00     3.14159E+00     1.00000E-22     7.87735E-10     0.00000E+00     0.00000E+00     1.92569E+09
     3.02838E+01     1.55235E+00     3.14159E+00     1.00000E-22     7.87721E-10     0.00000E+00     0.00000E+00     1.92573E+09
     3.02838E+01     1.55350E+00     3.14159E+00     1.00000E-22     7.87709E-10     0.00000E+00     0.00000E+00     1.92577E+09
     3.02838E+01     1.55457E+00     3.14159E+00     1.00000E-22     7.87699E-10     0.00000E+00     0.00000E+00     1.92581E+09
     3.02838E+01     1.55558E+00     3.14159E+00     1.00000E-22     7.87689E-10     0.00000E+00     0.00000E+00     1.92584E+09
     3.02838E+01     1.55653E+00     3.14159E+00     1.00000E-22     7.87681E-10     0.00000E+00     0.00000E+00     1.92586E+09
     3.02838E+01     1.55742E+00     3.14159E+00     1.00000E-22     7.87674E-10     0.00000E+00     0.00000E+00     1.92589E+09
     3.02838E+01     1.55825E+00     3.14159E+00     1.00000E-22     7.87668E-10     0.00000E+00     0.00000E+00     1.92591E+09
     3.02838E+01     1.55903E+00     3.14159E+00     1.00000E-22     7.87662E-10     0.00000E+00     0.00000E+00     1.92593E+09
     3.02838E+01     1.55976E+00     3.14159E+00     1.00000E-22     7.87657E-10     0.00000E+00     0.00000E+00     1.92594E+09
     3.02838E+01     1.56045E+00     3.14159E+00     1.00000E-22     7.87653E-10     0.00000E+00     0.00000E+00     1.92596E+09
     3.02838E+01     1.56109E+00     3.14159E+00     1.00000E-22     7.87649E-10     0.00000E+00     0.00000E+00     1.92597E+09
     3.02838E+01     1.56170E+00     3.14159E+00     1.00000E-22     7.87645E-10     0.00000E+00     0.00000E+00     1.92598E+09
     3.02838E+01     1.56226E+00     3.14159E+00     1.00000E-22     7.87643E-10     0.00000E+00     0.00000E+00     1.92599E+09
     3.02838E+01     1.56280E+00     3.14159E+00     1.00000E-22     7.87640E-10     0.00000E+00     0.00000E+00     1.92600E+09
     3.02838E+01     1.56330E+00     3.14159E+00     1.00000E-22     7.87638E-10     0.00000E+00     0.00000E+00     1.92601E+09
     3.02838E+01     1.56376E+00     3.14159E+00     1.00001E-22     7.87640E-10     0.00000E+00     0.00000E+00     1.92601E+09
     3.02838E+01     1.56420E+00     3.14159E+00     1.00098E-22     7.88404E-10     0.00000E+00     0.00000E+00     1.92602E+09
     3.02838E+01     1.56461E+00     3.14159E+00     1.08484E-22     8.54456E-10     0.00000E+00     0.00000E+00     1.92602E+09
     3.02838E+01     1.56500E+00     3.14159E+00     5.29649E-22     4.17168E-09     0.00000E+00     0.00000E+00     1.92603E+09
     3.02838E+01     1.56536E+00     3.14159E+00     1.36546E-20     1.07547E-07     0.00000E+00     0.00000E+00     1.92603E+09
     3.02838E+01     1.56570E+00     3.14159E+00     2.82099E-19     2.22189E-06     0.00000E+00     0.00000E+00     1.92603E+09
     3.02838E+01     1.56602E+00     3.14159E+00     4.06785E-18     3.20395E-05     0.00000E+00     0.00000E+00     1.92604E+09
     3.02838E+01     1.56632E+00     3.14159E+00     4.25155E-17     3.34864E-04     0.00000E+00     0.00000E+00     1.92604E+09
     3.02838E+01     1.56660E+00     3.14159E+00     3.34708E-16     2.63624E-03     0.00000E+00     0.00000E+00     1.92604E+09
     3.02838E+01     1.56687E+00     3.14159E+00     2.05365E-15     1.61751E-02     0.00000E+00     0.00000E+00     1.92604E+09
     3.02838E+01     1.56711E+00     3.14159E+00     1.01197E-14     7.97052E-02     0.00000E+00     0.00000E+00     1.92605E+09
     3.02838E+01     1.56734E+00     3.14159E+00     4.11201E-14     3.23872E-01     0.00000E+00     0.00000E+00     1.92605E+09
     3.02838E+01     1.56756E+00     3.14159E+00     1.41019E-13     1.11070E+00     0.00000E+00     0.00000E+00     1.92605E+09
     3.02838E+01     1.56777E+00     3.14159E+00     4.16594E-13     3.28119E+00     0.00000E+00     0.00000E+00     1.92605E+09
     3.02838E+01     1.56796E+00     3.14159E+00     1.07937E-12     8.50138E+00     0.00000E+00     0.00000E+00     1.92605E+09
     3.02838E+01     1.56814E+00     3.14159E+00     2.49184E-12     1.96263E+01     0.00000E+00     0.00000E+00     1.92605E+09
     3.02838E+01     1.56831E+00     3.14159E+00     5.19763E-12     4.09377E+01     0.00000E+00     0.00000E+00     1.92605E+09
     3.02838E+01     1.56846E+00     3.14159E+00     9.91611E-12     7.81015E+01     0.00000E+00     0.00000E+00     1.92605E+09
     3.02838E+01     1.56861E+00     3.14159E+00     1.74906E-11     1.37760E+02     0.00000E+00     0.00000E+00     1.92606E+09
     3.02838E+01     1.56875E+00     3.14159E+00     2.87946E-11     2.26793E+02     0.00000E+00     0.00000E+00     1.92606E+09
     3.02838E+01     1.56888E+00     3.14159E+00     4.46147E-11     3.51395E+02     0.00000E+00     0.00000E+00     1.92606E+09
     3.02838E+01     1.56900E+00     3.14159E+00     6.55372E-11     5.16186E+02     0.00000E+00     0.00000E+00     1.92606E+09
     3.02838E+01     1.56912E+00     3.14159E+00     9.18631E-11     7.23534E+02     0.00000E+00     0.00000E+00     1.92606E+09
     3.02838E+01     1.56923E+00     3.14159E+00     1.23566E-10     9.73233E+02     0.00000E+00     0.00000E+00     1.92606E+09
     3.02838E+01     1.56933E+00     3.14159E+00     1.60298E-10     1.26254E+03     0.00000E+00     0.00000E+00     1.92606E+09
     3.02838E+01     1.56942E+00     3.14159E+00     2.01434E-10     1.58654E+03     0.00000E+00     0.00000E+00     1.92606E+09
     3.02838E+01     1.56951E+00     3.14159E+00     2.46143E-10     1.93868E+03     0.00000E+00     0.00000E+00     1.92606E+09
     3.02838E+01     1.56959E+00     3.14159E+00     2.93473E-10     2.31145E+03     0.00000E+00     0.00000E+00     1.92606E+09
     3.02838E+01     1.56967E+00     3.14159E+00     3.42425E-10     2.69701E+03     0.00000E+00     0.00000E+00     1.92606E+09
     3.02838E+01     1.56975E+00     3.14159E+00     3.92032E-10     3.08773E+03     0.00000E+00     0.00000E+00     1.92606E+09
     3.02838E+01     1.56981E+00     3.14159E+00     4.41405E-10     3.47660E+03     0.00000E+00     0.00000E+00     1.92606E+09
     3.02838E+01     1.56988E+00     3.14159E+00     4.89772E-10     3.85754E+03     0.00000E+00     0.00000E+00     1.92606E+09
     3.02838E+01     1.56994E+00     3.14159E+00     5.36493E-10     4.22553E+03     0.00000E+00     0.00000E+00     1.92606E+09
     3.02838E+01     1.57000E+00     3.14159E+00     5.81071E-10     4.57664E+03     0.00000E+00     0.00000E+00     1.92606E+09
     3.02838E+01     1.57005E+00     3.14159E+00     6.23143E-10     4.90800E+03     0.00000E+00     0.00000E+00     1.92606E+09
     3.02838E+01     1.57010E+00     3.14159E+00     6.62468E-10     5.21774E+03     0.00000E+00     0.00000E+00     1.92606E+09
     3.02838E+01     1.57015E+00     3.14159E+00     6.98915E-10     5.50480E+03     0.00000E+00     0.00000E+00     1.92606E+09
     3.02838E+01     1.57019E+00     3.14159E+00     7.32438E-10     5.76883E+03     0.00000E+00     0.00000E+00     1.92606E+09
     3.02838E+01     1.57023E+00     3.14159E+00     7.63066E-10     6.01007E+03     0.00000E+00     0.00000E+00     1.92606E+09
     3.02838E+01     1.57027E+00     3.14159E+00     7.90881E-10     6.22915E+03     0.00000E+00     0.00000E+00     1.92606E+09
     3.02838E+01     1.57031E+00     3.14159E+00     8.16008E-10     6.42705E+03     0.00000E+00     0.00000E+00     1.92606E+09
     3.02838E+01     1.57034E+00     3.14159E+00     8.38598E-10     6.60498E+03     0.00000E+00     0.00000E+00     1.92606E+09
     3.02838E+01     1.57037E+00     3.14159E+00     8.58820E-10     6.76425E+03     0.00000E+00     0.00000E+00     1.92606E+09
     3.02838E+01     1.57040E+00     3.14159E+00     8.76851E-10     6.90626E+03     0.00000E+00     0.00000E+00     1.92606E+09
     3.02838E+01     1.57043E+00     3.14159E+00     8.92871E-10     7.03244E+03     0.00000E+00     0.00000E+00     1.92606E+09
     3.02838E+01     1.57046E+00     3.14159E+00     9.07059E-10     7.14419E+03     0.00000E+00     0.00000E+00     1.92606E+09
     3.02838E+01     1.57048E+00     3.14159E+00     9.19586E-10     7.24285E+03     0.00000E+00     0.00000E+00     1.92606E+09
     3.02838E+01     1.57051E+00     3.14159E+00     9.30616E-10     7.32972E+03     0.00000E+00     0.00000E+00     1.92606E+09
     3.02838E+01     1.57053E+00     3.14159E+00     9.40301E-10     7.40601E+03     0.00000E+00     0.00000E+00     1.92606E+09
     3.02838E+01     1.57055E+00     3.14159E+00     9.48784E-10     7.47282E+03     0.00000E+00     0.00000E+00     1.92606E+09
     3.02838E+01     1.57057E+00     3.14159E+00     9.56196E-10     7.53120E+03     0.00000E+00     0.00000E+00     1.92606E+09
     3.02838E+01     1.57058E+00     3.14159E+00     9.62656E-10     7.58208E+03     0.00000E+00     0.00000E+00     1.92606E+09
     3.02838E+01     1.57060E+00     3.14159E+00     9.68274E-10     7.62633E+03     0.00000E+00     0.00000E+00     1.92606E+09
     3.02838E+01     1.57062E+00     3.14159E+00     9.73147E-10     7.66471E+03     0.00000E+00     0.00000E+00     1.92606E+09
     3.02838E+01     1.57063E+00     3.14159E+00     9.77363E-10     7.69791E+03     0.00000E+00     0.00000E+00     1.92606E+09
     3.02838E+01     1.57065E+00     3.14159E+00     9.81001E-10     7.72657E+03     0.00000E+00     0.00000E+00     1.92606E+09
     3.02838E+01     1.57066E+00     3.14159E+00     9.84132E-10     7.75123E+03     0.00000E+00     0.00000E+00     1.92606E+09
     3.02838E+01     1.57067E+00     3.14159E+00     9.86819E-10     7.77240E+03     0.00000E+00     0.00000E+00     1.92606E+09
     3.02838E+01     1.57068E+00     3.14159E+00     9.89117E-10     7.79050E+03     0.00000E+00     0.00000E+00     1.92606E+09
     3.02838E+01     1.57069E+00     3.14159E+00     9.91076E-10     7.80593E+03     0.00000E+00     0.00000E+00     1.92606E+09
     3.02838E+01     1.57070E+00     3.14159E+00     9.92740E-10     7.81903E+03     0.00000E+00     0.00000E+00     1.92606E+09
     3.02838E+01     1.57071E+00     3.14159E+00     9.94146E-10     7.83010E+03     0.00000E+00     0.00000E+00     1.92606E+09
     3.02838E+01     1.57072E+00     3.14159E+00     9.95328E-10     7.83942E+03     0.00000E+00     0.00000E+00     1.92606E+09
     3.02838E+01     1.57073E+00     3.14159E+00     9.96317E-10     7.84721E+03     0.00000E+00     0.00000E+00     1.92606E+09
     3.02838E+01     1.57074E+00     3.14159E+00     9.97139E-10     7.85368E+03     0.00000E+00     0.00000E+00     1.92606E+09
     3.02838E+01     1.57075E+00     3.14159E+00     9.97816E-10     7.85901E+03     0.00000E+00     0.00000E+00     1.92606E+09
     3.02838E+01     1.57075E+00     3.14159E+00     9.98368E-10     7.86336E+03     0.00000E+00     0.00000E+00     1.92606E+09
     3.02838E+01     1.57076E+00     3.14159E+00     9.98813E-10     7.86686E+03     0.00000E+00     0.00000E+00     1.92606E+09
     3.02838E+01     1.57077E+00     3.14159E+00     9.99167E-10     7.86965E+03     0.00000E+00     0.00000E+00     1.92606E+09
     3.02838E+01     1.57077E+00     3.14159E+00     9.99442E-10     7.87181E+03     0.00000E+00     0.00000E+00     1.92606E+09
     3.02838E+01     1.57078E+00     3.14159E+00     9.99650E-10     7.87345E+03     0.00000E+00     0.00000E+00     1.92606E+09
     3.02838E+01     1.57078E+00     3.14159E+00     9.99801E-10     7.87464E+03     0.00000E+00     0.00000E+00     1.92606E+09
     3.02838E+01     1.57079E+00     3.14159E+00     9.99904E-10     7.87546E+03     0.00000E+00     0.00000E+00     1.92606E+09
     3.02838E+01     1.57079E+00     3.14159E+00     9.99967E-10     7.87595E+03     0.00000E+00     0.00000E+00     1.92606E+09
     3.02838E+01     1.57079E+00     3.14159E+00     9.99996E-10     7.87618E+03     0.00000E+00     0.00000E+00     1.92606E+09
     3.02838E+01     1.57080E+00     3.14159E+00     1.00000E-09     7.87621E+03     0.00000E+00     0.00000E+00     1.92606E+09
     3.08612E+01     4.86288E-02     3.14159E+00     1.00000E-22     7.50109E-09     0.00000E+00     0.00000E+00     9.27451E+07
     3.08612E+01     1.42876E-01     3.14159E+00     1.00000E-22     3.35009E-09     0.00000E+00     0.00000E+00     2.71674E+08
     3.08612E+01     2.31287E-01     3.14159E+00     1.00000E-22     2.34402E-09     0.00000E+00     0.00000E+00     4.37362E+08
     3.08612E+01     3.14225E-01     3.14159E+00     1.00000E-22     1.87333E-09     0.00000E+00     0.00000E+00     5.89711E+08
     3.08612E+01     3.92028E-01     3.14159E+00     1.00000E-22     1.59796E-09     0.00000E+00     0.00000E+00     7.28960E+08
     3.08612E+01     4.65013E-01     3.14159E+00     1.00000E-22     1.41707E-09     0.00000E+00     0.00000E+00     8.55595E+08
     3.08612E+01     5.33480E-01     3.14159E+00     1.00000E-22     1.28952E-09     0.00000E+00     0.00000E+00     9.70260E+08
     3.08612E+01     5.97708E-01     3.14159E+00     1.00000E-22     1.19517E-09     0.00000E+00     0.00000E+00     1.07370E+09
     3.08612E+01     6.57959E-01     3.14159E+00     1.00000E-22     1.12297E-09     0.00000E+00     0.00000E+00     1.16672E+09
     3.08612E+01     7.14480E-01     3.14159E+00     1.00000E-22     1.06629E-09     0.00000E+00     0.00000E+00     1.25014E+09
     3.08612E+01     7.67502E-01     3.14159E+00     1.00000E-22     1.02091E-09     0.00000E+00     0.00000E+00     1.32477E+09
     3.08612E+01     8.17240E-01     3.14159E+00     1.00000E-22     9.84021E-10     0.00000E+00     0.00000E+00     1.39140E+09
     3.08612E+01     8.63899E-01     3.14159E+00     1.00000E-22     9.53658E-10     0.00000E+00     0.00000E+00     1.45078E+09
     3.08612E+01     9.07670E-01     3.14159E+00     1.00000E-22     9.28415E-10     0.00000E+00     0.00000E+00     1.50361E+09
     3.08612E+01     9.48730E-01     3.14159E+00     1.00000E-22     9.07252E-10     0.00000E+00     0.00000E+00     1.55055E+09
     3.08612E+01     9.87248E-01     3.14159E+00     1.00000E-22     8.89388E-10     0.00000E+00     0.00000E+00     1.59222E+09
     3.08612E+01     1.02338E+00     3.14159E+00     1.00000E-22     8.74221E-10     0.00000E+00     0.00000E+00     1.62915E+09
     3.08612E+01     1.05728E+00     3.14159E+00     1.00000E-22     8.61280E-10     0.00000E+00     0.00000E+00     1.66187E+09
     3.08612E+01     1.08908E+00     3.14159E+00     1.00000E-22     8.50193E-10     0.00000E+00     0.00000E+00     1.69083E+09
     3.08612E+01     1.11890E+00     3.14159E+00     1.00000E-22     8.40661E-10     0.00000E+00     0.00000E+00     1.71644E+09
     3.08612E+01     1.14689E+00     3.14159E+00     1.00000E-22     8.32440E-10     0.00000E+00     0.00000E+00     1.73908E+09
     3.08612E+01     1.17314E+00     3.14159E+00     1.00000E-22     8.25332E-10     0.00000E+00     0.00000E+00     1.75908E+09
     3.08612E+01     1.19776E+00     3.14159E+00     1.00000E-22     8.19172E-10     0.00000E+00     0.00000E+00     1.77674E+09
     3.08612E+01     1.22086E+00     3.14159E+00     1.00000E-22     8.13823E-10     0.00000E+00     0.00000E+00     1.79233E+09
     3.08612E+01     1.24253E+00     3.14159E+00     1.00000E-22     8.09171E-10     0.00000E+00     0.00000E+00     1.80608E+09
     3.08612E+01     1.26286E+00     3.14159E+00     1.00000E-22     8.05119E-10     0.00000E+00     0.00000E+00     1.81821E+09
     3.08612E+01     1.28193E+00     3.14159E+00     1.00000E-22     8.01585E-10     0.00000E+00     0.00000E+00     1.82891E+09
     3.08612E+01     1.29982E+00     3.14159E+00     1.00000E-22     7.98499E-10     0.00000E+00     0.00000E+00     1.83834E+09
     3.08612E+01     1.31660E+00     3.14159E+00     1.00000E-22     7.95802E-10     0.00000E+00     0.00000E+00     1.84665E+09
     3.08612E+01     1.33234E+00     3.14159E+00     1.00000E-22     7.93443E-10     0.00000E+00     0.00000E+00     1.85397E+09
     3.08612E+01     1.34711E+00     3.14159E+00     1.00000E-22     7.91378E-10     0.00000E+00     0.00000E+00     1.86042E+09
     3.08612E+01     1.36096E+00     3.14159E+00     1.00000E-22     7.89570E-10     0.00000E+00     0.00000E+00     1.86611E+09
     3.08612E+01     1.37396E+00     3.14159E+00     1.00000E-22     7.87984E-10     0.00000E+00     0.00000E+00     1.87111E+09
     3.08612E+01     1.38615E+00     3.14159E+00     1.00000E-22     7.86594E-10     0.00000E+00     0.00000E+00     1.87552E+09
     3.08612E+01     1.39758E+00     3.14159E+00     1.00000E-22     7.85375E-10     0.00000E+00     0.00000E+00     1.87941E+09
     3.08612E+01     1.40831E+00     3.14159E+00     1.00000E-22     7.84305E-10     0.00000E+00     0.00000E+00     1.88283E+09
     3.08612E+01     1.41837E+00     3.14159E+00     1.00000E-22     7.83366E-10     0.00000E+00     0.00000E+00     1.88584E+09
     3.08612E+01     1.42781E+00     3.14159E+00     1.00000E-22     7.82541E-10     0.00000E+00     0.00000E+00     1.88849E+09
     3.08612E+01     1.43667E+00     3.14159E+00     1.00000E-22     7.81816E-10     0.00000E+00     0.00000E+00     1.89082E+09
     3.08612E+01     1.44498E+00     3.14159E+00     1.00000E-22     7.81180E-10     0.00000E+00     0.00000E+00     1.89288E+09
     3.08612E+01     1.45277E+00     3.14159E+00     1.00000E-22     7.80621E-10     0.00000E+00     0.00000E+00     1.89469E+09
     3.08612E+01     1.46008E+00     3.14159E+00     1.00000E-22     7.80129E-10     0.00000E+00     0.00000E+00     1.89628E+09
     3.08612E+01     1.46694E+00     3.14159E+00     1.00000E-22     7.79697E-10     0.00000E+00     0.00000E+00     1.89768E+09
     3.08612E+01     1.47338E+00     3.14159E+00     1.00000E-22     7.79317E-10     0.00000E+00     0.00000E+00     1.89891E+09
     3.08612E+01     1.47941E+00     3.14159E+00     1.00000E-22     7.78983E-10     0.00000E+00     0.00000E+00     1.90000E+09
     3.08612E+01     1.48507E+00     3.14159E+00     1.00000E-22     7.78690E-10     0.00000E+00     0.00000E+00     1.90095E+09
     3.08612E+01     1.49038E+00     3.14159E+00     1.00000E-22     7.78431E-10     0.00000E+00     0.00000E+00     1.90179E+09
     3.08612E+01     1.49537E+00     3.14159E+00     1.00000E-22     7.78204E-10     0.00000E+00     0.00000E+00     1.90253E+09
     3.08612E+01     1.50004E+00     3.14159E+00     1.00000E-22     7.78005E-10     0.00000E+00     0.00000E+00     1.90318E+09
     3.08612E+01     1.50442E+00     3.14159E+00     1.00000E-22     7.77829E-10     0.00000E+00     0.00000E+00     1.90376E+09
     3.08612E+01     1.50854E+00     3.14159E+00     1.00000E-22     7.77674E-10     0.00000E+00     0.00000E+00     1.90426E+09
     3.08612E+01     1.51240E+00     3.14159E+00     1.00000E-22     7.77538E-10     0.00000E+00     0.00000E+00     1.90471E+09
     3.08612E+01     1.51602E+00     3.14159E+00     1.00000E-22     7.77419E-10     0.00000E+00     0.00000E+00     1.90510E+09
     3.08612E+01     1.51941E+00     3.14159E+00     1.00000E-22     7.77314E-10     0.00000E+00     0.00000E+00     1.90544E+09
     3.08612E+01     1.52260E+00     3.14159E+00     1.00000E-22     7.77221E-10     0.00000E+00     0.00000E+00     1.90574E+09
     3.08612E+01     1.52558E+00     3.14159E+00     1.00000E-22     7.77140E-10     0.00000E+00     0.00000E+00     1.90601E+09
     3.08612E+01     1.52839E+00     3.14159E+00     1.00000E-22     7.77068E-10     0.00000E+00     0.00000E+00     1.90624E+09
     3.08612E+01     1.53102E+00     3.14159E+00     1.00000E-22     7.77005E-10     0.00000E+00     0.00000E+00     1.90645E+09
     3.08612E+01     1.53348E+00     3.14159E+00     1.00000E-22     7.76950E-10     0.00000E+00     0.00000E+00     1.90663E+09
     3.08612E+01     1.53580E+00     3.14159E+00     1.00000E-22     7.76901E-10     0.00000E+00     0.00000E+00     1.90679E+09
     3.08612E+01     1.53797E+00     3.14159E+00     1.00000E-22     7.76858E-10     0.00000E+00     0.00000E+00     1.90693E+09
     3.08612E+01     1.54000E+00     3.14159E+00     1.00000E-22     7.76820E-10     0.00000E+00     0.00000E+00     1.90705E+09
     3.08612E+01     1.54191E+00     3.14159E+00     1.00000E-22     7.76787E-10     0.00000E+00     0.00000E+00     1.90716E+09
     3.08612E+01     1.54371E+00     3.14159E+00     1.00000E-22     7.76758E-10     0.00000E+00     0.00000E+00     1.90726E+09
     3.08612E+01     1.54539E+00     3.14159E+00     1.00000E-22     7.76732E-10     0.00000E+00     0.00000E+00     1.90734E+09
     3.08612E+01     1.54696E+00     3.14159E+00     1.00000E-22     7.76710E-10     0.00000E+00     0.00000E+00     1.90742E+09
     3.08612E+01     1.54844E+00     3.14159E+00     1.00000E-22     7.76690E-10     0.00000E+00     0.00000E+00     1.90748E+09
     3.08612E+01     1.54983E+00     3.14159E+00     1.00000E-22     7.76672E-10     0.00000E+00     0.00000E+00     1.90754E+09
     3.08612E+01     1.55113E+00     3.14159E+00     1.00000E-22     7.76657E-10     0.00000E+00     0.00000E+00     1.90759E+09
     3.08612E+01     1.55235E+00     3.14159E+00     1.00000E-22     7.76643E-10     0.00000E+00     0.00000E+00     1.90763E+09
     3.08612E+01     1.55350E+00     3.14159E+00     1.00000E-22     7.76631E-10     0.00000E+00     0.00000E+00     1.90767E+09