 TITLE= "ZEUSMP/2 FIELD DATA AT TIME:    13.9747127585765      yr "
 VARIABLES= "X","Y","Z","rho","e","V1","V2","V3"
 ZONE I=  100 , J=  160 , K=    1 , F=POINT
     3.02838E+01     4.86288E-02     3.14159E+00     1.19526E-20     2.37042E-02    -4.39542E+09    -4.98387E+08     9.22456E+07
     3.02838E+01     1.42876E-01     3.14159E+00     1.86517E-20     3.93499E-02    -4.26844E+09    -1.11828E+09     1.11988E+08
     3.02838E+01     2.31287E-01     3.14159E+00     2.01901E-20     4.04905E-02    -4.38143E+09    -1.11362E+09     1.45813E+08
     3.02838E+01     3.14225E-01     3.14159E+00     1.81880E-20     3.09057E-02    -4.56602E+09    -8.13303E+08     1.97085E+08
     3.02838E+01     3.92028E-01     3.14159E+00     1.69591E-20     2.54593E-02    -4.65156E+09    -4.94873E+08     2.94119E+08
     3.02838E+01     4.65013E-01     3.14159E+00     1.56747E-20     2.10178E-02    -4.67942E+09    -1.57909E+08     4.46866E+08
     3.02838E+01     5.33480E-01     3.14159E+00     1.29289E-20     1.47131E-02    -4.68006E+09     2.55246E+08     6.27233E+08
     3.02838E+01     5.97708E-01     3.14159E+00     1.16147E-20     1.21007E-02    -4.58618E+09     6.46320E+08     7.95098E+08
     3.02838E+01     6.57959E-01     3.14159E+00     1.07509E-20     1.03033E-02    -4.45037E+09     9.65008E+08     9.41436E+08
     3.02838E+01     7.14480E-01     3.14159E+00     1.01662E-20     9.27741E-03    -4.29750E+09     1.23920E+09     1.05892E+09
     3.02838E+01     7.67502E-01     3.14159E+00     9.96568E-21     9.00252E-03    -4.13160E+09     1.47649E+09     1.15621E+09
     3.02838E+01     8.17240E-01     3.14159E+00     1.00249E-20     9.10547E-03    -3.95792E+09     1.67866E+09     1.24063E+09
     3.02838E+01     8.63899E-01     3.14159E+00     1.02599E-20     9.49658E-03    -3.78563E+09     1.83812E+09     1.31824E+09
     3.02838E+01     9.07670E-01     3.14159E+00     1.08286E-20     1.04404E-02    -3.61404E+09     1.95068E+09     1.39476E+09
     3.02838E+01     9.48730E-01     3.14159E+00     1.17908E-20     1.21311E-02    -3.43073E+09     2.00325E+09     1.47312E+09
     3.02838E+01     9.87248E-01     3.14159E+00     1.29306E-20     1.42859E-02    -3.23192E+09     2.00577E+09     1.55390E+09
     3.02838E+01     1.02338E+00     3.14159E+00     1.42143E-20     1.69849E-02    -3.02165E+09     1.97906E+09     1.63752E+09
     3.02838E+01     1.05728E+00     3.14159E+00     1.56584E-20     2.04009E-02    -2.79937E+09     1.92345E+09     1.72332E+09
     3.02838E+01     1.08908E+00     3.14159E+00     1.71481E-20     2.44174E-02    -2.56443E+09     1.84360E+09     1.80824E+09
     3.02838E+01     1.11890E+00     3.14159E+00     1.86617E-20     2.90513E-02    -2.32056E+09     1.74229E+09     1.88807E+09
     3.02838E+01     1.14689E+00     3.14159E+00     2.03680E-20     3.48611E-02    -2.07173E+09     1.61350E+09     1.95928E+09
     3.02838E+01     1.17314E+00     3.14159E+00     2.24923E-20     4.25960E-02    -1.81949E+09     1.45003E+09     2.01926E+09
     3.02838E+01     1.19776E+00     3.14159E+00     2.51759E-20     5.32395E-02    -1.55173E+09     1.26082E+09     2.06653E+09
     3.02838E+01     1.22086E+00     3.14159E+00     2.81216E-20     6.60678E-02    -1.25554E+09     1.09037E+09     2.10155E+09
     3.02838E+01     1.24253E+00     3.14159E+00     2.98673E-20     7.49843E-02    -9.73115E+08     9.94764E+08     2.12143E+09
     3.02838E+01     1.26286E+00     3.14159E+00     3.01684E-20     7.81554E-02    -7.50052E+08     9.68270E+08     2.12924E+09
     3.02838E+01     1.28193E+00     3.14159E+00     3.02751E-20     8.00949E-02    -5.74848E+08     9.63251E+08     2.12875E+09
     3.02838E+01     1.29982E+00     3.14159E+00     3.04131E-20     8.18999E-02    -4.38294E+08     9.58368E+08     2.12693E+09
     3.02838E+01     1.31660E+00     3.14159E+00     3.06197E-20     8.38109E-02    -3.34562E+08     9.51063E+08     2.12403E+09
     3.02838E+01     1.33234E+00     3.14159E+00     3.08896E-20     8.58218E-02    -2.58291E+08     9.41728E+08     2.12051E+09
     3.02838E+01     1.34711E+00     3.14159E+00     3.11816E-20     8.78784E-02    -2.04440E+08     9.31149E+08     2.11681E+09
     3.02838E+01     1.36096E+00     3.14159E+00     3.14842E-20     8.99894E-02    -1.62397E+08     9.19564E+08     2.11323E+09
     3.02838E+01     1.37396E+00     3.14159E+00     3.18139E-20     9.21967E-02    -1.22117E+08     9.06896E+08     2.10981E+09
     3.02838E+01     1.38615E+00     3.14159E+00     3.21874E-20     9.45176E-02    -8.13576E+07     8.93145E+08     2.10648E+09
     3.02838E+01     1.39758E+00     3.14159E+00     3.26128E-20     9.69599E-02    -4.12158E+07     8.78460E+08     2.10318E+09
     3.02838E+01     1.40831E+00     3.14159E+00     3.30968E-20     9.95228E-02     8.04821E+04     8.63045E+08     2.09979E+09
     3.02838E+01     1.41837E+00     3.14159E+00     3.35774E-20     1.02040E-01     2.00248E+07     8.37035E+08     2.09635E+09
     3.02838E+01     1.42781E+00     3.14159E+00     3.42209E-20     1.05418E-01     4.24241E+07     7.88468E+08     2.09279E+09
     3.02838E+01     1.43667E+00     3.14159E+00     3.49712E-20     1.09425E-01     6.80898E+07     7.17164E+08     2.08895E+09
     3.02838E+01     1.44498E+00     3.14159E+00     3.57527E-20     1.13710E-01     9.26833E+07     6.27855E+08     2.08468E+09
     3.02838E+01     1.45277E+00     3.14159E+00     3.65007E-20     1.17955E-01     1.12031E+08     5.27254E+08     2.07983E+09
     3.02838E+01     1.46008E+00     3.14159E+00     3.71838E-20     1.21955E-01     1.15421E+08     4.26151E+08     2.07450E+09
     3.02838E+01     1.46694E+00     3.14159E+00     3.77201E-20     1.25209E-01     1.10250E+08     3.34573E+08     2.06877E+09
     3.02838E+01     1.47338E+00     3.14159E+00     3.81178E-20     1.27716E-01     9.90091E+07     2.56602E+08     2.06274E+09
     3.02838E+01     1.47941E+00     3.14159E+00     3.84027E-20     1.29591E-01     8.56931E+07     1.92917E+08     2.05650E+09
     3.02838E+01     1.48507E+00     3.14159E+00     3.85990E-20     1.30961E-01     7.86908E+07     1.40353E+08     2.04970E+09
     3.02838E+01     1.49038E+00     3.14159E+00     3.87338E-20     1.32030E-01     7.48342E+07     9.46904E+07     2.04132E+09
     3.02838E+01     1.49537E+00     3.14159E+00     3.88289E-20     1.32950E-01     5.62321E+07     5.81059E+07     2.03182E+09
     3.02838E+01     1.50004E+00     3.14159E+00     3.88226E-20     1.33664E-01     3.60345E+07     3.38423E+07     2.02273E+09
     3.02838E+01     1.50442E+00     3.14159E+00     3.87432E-20     1.34234E-01     2.44838E+07     1.88558E+07     2.01294E+09
     3.02838E+01     1.50854E+00     3.14159E+00     3.86157E-20     1.34725E-01     1.52170E+07     9.55376E+06     1.99857E+09
     3.02838E+01     1.51240E+00     3.14159E+00     3.81085E-20     1.35157E-01     7.69118E+06     4.40722E+06     1.98121E+09
     3.02838E+01     1.51602E+00     3.14159E+00     4.14654E-20     1.35558E-01     2.30005E+06     2.16497E+06     1.97102E+09
     3.02838E+01     1.51941E+00     3.14159E+00     2.07756E-19     1.36697E-01     3.29661E+05     1.72691E+06     1.97381E+09
     3.02838E+01     1.52260E+00     3.14159E+00     1.22784E-18     1.42649E-01     2.95757E+06     9.99475E+05     1.97614E+09
     3.02838E+01     1.52558E+00     3.14159E+00     2.44100E-18     1.56586E-01     1.70712E+06    -1.65578E+05     1.97835E+09
     3.02838E+01     1.52839E+00     3.14159E+00     5.05281E-18     1.82629E-01    -1.27168E+06    -4.53455E+05     1.97648E+09
     3.02838E+01     1.53102E+00     3.14159E+00     9.66257E-18     2.29437E-01    -1.57337E+06    -3.56257E+05     1.97371E+09
     3.02838E+01     1.53348E+00     3.14159E+00     1.61984E-17     3.04739E-01    -1.08621E+06    -2.68035E+05     1.97171E+09
     3.02838E+01     1.53580E+00     3.14159E+00     2.61458E-17     4.17701E-01    -5.14974E+05    -2.32682E+05     1.97010E+09
     3.02838E+01     1.53797E+00     3.14159E+00     4.17267E-17     5.83764E-01    -1.76029E+05    -2.21710E+05     1.96868E+09
     3.02838E+01     1.54000E+00     3.14159E+00     6.46633E-17     8.22859E-01     3.17126E+04    -2.20549E+05     1.96739E+09
     3.02838E+01     1.54191E+00     3.14159E+00     9.60381E-17     1.15512E+00     1.31306E+05    -2.28302E+05     1.96613E+09
     3.02838E+01     1.54371E+00     3.14159E+00     1.37321E-16     1.59932E+00     1.94020E+05    -2.41480E+05     1.96509E+09
     3.02838E+01     1.54539E+00     3.14159E+00     1.92503E-16     2.17735E+00     1.75699E+05    -2.49236E+05     1.96452E+09
     3.02838E+01     1.54696E+00     3.14159E+00     2.63605E-16     2.91361E+00     1.09544E+05    -2.38975E+05     1.96415E+09
     3.02838E+01     1.54844E+00     3.14159E+00     3.57213E-16     3.83768E+00     2.05135E+03    -2.08152E+05     1.96362E+09
     3.02838E+01     1.54983E+00     3.14159E+00     4.79980E-16     4.98701E+00    -3.01586E+05    -1.50150E+05     1.96275E+09
     3.02838E+01     1.55113E+00     3.14159E+00     6.40713E-16     6.40761E+00    -5.77077E+05    -6.37999E+04     1.96191E+09
     3.02838E+01     1.55235E+00     3.14159E+00     8.38662E-16     8.13986E+00    -7.52216E+05     3.45606E+04     1.96158E+09
     3.02838E+01     1.55350E+00     3.14159E+00     1.06107E-15     1.01966E+01    -6.16488E+05     1.16258E+05     1.96156E+09
     3.02838E+01     1.55457E+00     3.14159E+00     1.30526E-15     1.25678E+01    -2.66676E+05     1.57827E+05     1.96164E+09
     3.02838E+01     1.55558E+00     3.14159E+00     1.57773E-15     1.52440E+01     9.63101E+04     1.56891E+05     1.96175E+09
     3.02838E+01     1.55653E+00     3.14159E+00     1.88825E-15     1.82257E+01     3.22863E+05     1.31311E+05     1.96167E+09
     3.02838E+01     1.55742E+00     3.14159E+00     2.25702E-15     2.15324E+01     2.82933E+05     1.04809E+05     1.96142E+09
     3.02838E+01     1.55825E+00     3.14159E+00     2.71833E-15     2.52162E+01     1.30721E+05     9.06684E+04     1.96130E+09
     3.02838E+01     1.55903E+00     3.14159E+00     3.29004E-15     2.93450E+01     1.16523E+05     8.53913E+04     1.96122E+09
     3.02838E+01     1.55976E+00     3.14159E+00     3.93388E-15     3.39564E+01     1.79242E+05     7.98123E+04     1.96096E+09
     3.02838E+01     1.56045E+00     3.14159E+00     4.65394E-15     3.90511E+01     2.46876E+05     7.07191E+04     1.96055E+09
     3.02838E+01     1.56109E+00     3.14159E+00     5.40239E-15     4.45982E+01     2.16690E+05     6.15829E+04     1.96015E+09
     3.02838E+01     1.56170E+00     3.14159E+00     6.20492E-15     5.05542E+01     2.27257E+05     5.36976E+04     1.95978E+09
     3.02838E+01     1.56226E+00     3.14159E+00     7.05501E-15     5.68865E+01     3.50688E+05     4.20149E+04     1.95942E+09
     3.02838E+01     1.56280E+00     3.14159E+00     8.03401E-15     6.35956E+01     2.56020E+05     3.02880E+04     1.95903E+09
     3.02838E+01     1.56330E+00     3.14159E+00     9.27080E-15     7.07616E+01     2.14252E+05     2.40336E+04     1.95863E+09
     3.02838E+01     1.56376E+00     3.14159E+00     1.05562E-14     7.84124E+01     3.01169E+05     1.75733E+04     1.95850E+09
     3.02838E+01     1.56420E+00     3.14159E+00     1.15925E-14     8.63793E+01     2.38977E+05     1.04517E+04     1.95812E+09
     3.02838E+01     1.56461E+00     3.14159E+00     1.26422E-14     9.45084E+01     1.35923E+05     7.14046E+03     1.95772E+09
     3.02838E+01     1.56500E+00     3.14159E+00     1.36822E-14     1.02745E+02    -1.23696E+05     1.09574E+04     1.95713E+09
     3.02838E+01     1.56536E+00     3.14159E+00     1.47560E-14     1.11047E+02    -4.06118E+05     2.34118E+04     1.95675E+09
     3.02838E+01     1.56570E+00     3.14159E+00     1.61407E-14     1.19466E+02    -2.42634E+05     3.64301E+04     1.95664E+09
     3.02838E+01     1.56602E+00     3.14159E+00     1.75593E-14     1.28039E+02     1.10853E+05     4.03614E+04     1.95680E+09
     3.02838E+01     1.56632E+00     3.14159E+00     1.87993E-14     1.36679E+02     1.15807E+05     3.84577E+04     1.95687E+09
     3.02838E+01     1.56660E+00     3.14159E+00     2.00389E-14     1.45300E+02    -4.47900E+05     4.33603E+04     1.95653E+09
     3.02838E+01     1.56687E+00     3.14159E+00     2.15736E-14     1.53931E+02    -7.39259E+05     5.75651E+04     1.95606E+09
     3.02838E+01     1.56711E+00     3.14159E+00     2.33199E-14     1.62633E+02     5.78359E+04     6.51290E+04     1.95546E+09
     3.02838E+01     1.56734E+00     3.14159E+00     2.53493E-14     1.71451E+02     7.06014E+05     5.57554E+04     1.95444E+09
     3.02838E+01     1.56756E+00     3.14159E+00     2.72684E-14     1.80367E+02     1.09870E+06     3.48774E+04     1.95320E+09
     3.02838E+01     1.56777E+00     3.14159E+00     2.89270E-14     1.89272E+02     1.14511E+06     1.08520E+04     1.95211E+09
     3.02838E+01     1.56796E+00     3.14159E+00     3.03390E-14     1.98057E+02     9.90719E+05    -1.00954E+04     1.95129E+09
     3.02838E+01     1.56814E+00     3.14159E+00     3.15498E-14     2.06639E+02     7.79258E+05    -2.57728E+04     1.95072E+09
     3.02838E+01     1.56831E+00     3.14159E+00     3.26715E-14     2.14971E+02     6.72887E+05    -3.72060E+04     1.95025E+09
     3.02838E+01     1.56846E+00     3.14159E+00     3.38507E-14     2.23048E+02     6.82214E+05    -4.67802E+04     1.94974E+09
     3.02838E+01     1.56861E+00     3.14159E+00     3.52486E-14     2.30901E+02     7.97776E+05    -5.65537E+04     1.94928E+09
     3.02838E+01     1.56875E+00     3.14159E+00     3.67787E-14     2.38563E+02     9.57071E+05    -6.76702E+04     1.94901E+09
     3.02838E+01     1.56888E+00     3.14159E+00     3.80412E-14     2.46015E+02     9.23675E+05    -7.88456E+04     1.94890E+09
     3.02838E+01     1.56900E+00     3.14159E+00     3.91053E-14     2.53209E+02     7.31212E+05    -8.77911E+04     1.94884E+09
     3.02838E+01     1.56912E+00     3.14159E+00     4.02407E-14     2.60138E+02     5.42021E+05    -9.37266E+04     1.94860E+09
     3.02838E+01     1.56923E+00     3.14159E+00     4.18661E-14     2.66854E+02     5.51853E+05    -9.80767E+04     1.94795E+09
     3.02838E+01     1.56933E+00     3.14159E+00     4.42040E-14     2.73447E+02     7.33151E+05    -1.03142E+05     1.94694E+09
     3.02838E+01     1.56942E+00     3.14159E+00     4.71340E-14     2.80000E+02     7.98818E+05    -1.09133E+05     1.94581E+09
     3.02838E+01     1.56951E+00     3.14159E+00     5.05524E-14     2.86565E+02     4.52182E+05    -1.13403E+05     1.94455E+09
     3.02838E+01     1.56959E+00     3.14159E+00     5.42233E-14     2.93162E+02    -9.13166E+05    -1.10982E+05     1.94311E+09
     3.02838E+01     1.56967E+00     3.14159E+00     5.79680E-14     2.99780E+02    -3.90433E+06    -9.54065E+04     1.94210E+09
     3.02838E+01     1.56975E+00     3.14159E+00     6.15812E-14     3.06387E+02    -7.44908E+06    -6.28278E+04     1.94201E+09
     3.02838E+01     1.56981E+00     3.14159E+00     6.48937E-14     3.12935E+02    -1.05997E+07    -1.48751E+04     1.94268E+09
     3.02838E+01     1.56988E+00     3.14159E+00     6.78690E-14     3.19376E+02    -1.26771E+07     4.30433E+04     1.94385E+09
     3.02838E+01     1.56994E+00     3.14159E+00     7.07849E-14     3.25678E+02    -1.31376E+07     1.02708E+05     1.94502E+09
     3.02838E+01     1.57000E+00     3.14159E+00     7.41542E-14     3.31852E+02    -1.18030E+07     1.55557E+05     1.94581E+09
     3.02838E+01     1.57005E+00     3.14159E+00     7.82744E-14     3.37938E+02    -8.09447E+06     1.94221E+05     1.94606E+09
     3.02838E+01     1.57010E+00     3.14159E+00     8.28343E-14     3.43971E+02    -2.08049E+06     2.11977E+05     1.94562E+09
     3.02838E+01     1.57015E+00     3.14159E+00     8.73581E-14     3.49949E+02     2.01042E+06     2.08871E+05     1.94461E+09
     3.02838E+01     1.57019E+00     3.14159E+00     9.28658E-14     3.55884E+02     4.06675E+06     1.92563E+05     1.94302E+09
     3.02838E+01     1.57023E+00     3.14159E+00     9.95758E-14     3.61826E+02     5.46042E+06     1.69636E+05     1.94091E+09
     3.02838E+01     1.57027E+00     3.14159E+00     1.07673E-13     3.67826E+02     6.40601E+06     1.43381E+05     1.93837E+09
     3.02838E+01     1.57031E+00     3.14159E+00     1.17347E-13     3.73933E+02     6.77146E+06     1.16367E+05     1.93548E+09
     3.02838E+01     1.57034E+00     3.14159E+00     1.28948E-13     3.80201E+02     6.55126E+06     9.09652E+04     1.93239E+09
     3.02838E+01     1.57037E+00     3.14159E+00     1.42925E-13     3.86688E+02     5.71734E+06     6.91610E+04     1.92936E+09
     3.02838E+01     1.57040E+00     3.14159E+00     1.59542E-13     3.93455E+02     4.55906E+06     5.21441E+04     1.92665E+09
     3.02838E+01     1.57043E+00     3.14159E+00     1.78529E-13     4.00547E+02     3.37370E+06     3.99368E+04     1.92446E+09
     3.02838E+01     1.57046E+00     3.14159E+00     1.99063E-13     4.07974E+02     2.37739E+06     3.17468E+04     1.92278E+09
     3.02838E+01     1.57048E+00     3.14159E+00     2.19855E-13     4.15702E+02     1.80565E+06     2.62719E+04     1.92153E+09
     3.02838E+01     1.57051E+00     3.14159E+00     2.40673E-13     4.23667E+02     1.61202E+06     2.21688E+04     1.92073E+09
     3.02838E+01     1.57053E+00     3.14159E+00     2.55956E-13     4.31723E+02     1.55561E+06     1.86432E+04     1.92036E+09
     3.02838E+01     1.57055E+00     3.14159E+00     2.60301E-13     4.39576E+02     1.26942E+06     1.58039E+04     1.92008E+09
     3.02838E+01     1.57057E+00     3.14159E+00     2.58422E-13     4.46976E+02     8.27822E+05     1.39115E+04     1.91949E+09
     3.02838E+01     1.57058E+00     3.14159E+00     2.52400E-13     4.53810E+02     6.23309E+05     1.27464E+04     1.91869E+09
     3.02838E+01     1.57060E+00     3.14159E+00     2.50445E-13     4.60119E+02     6.86923E+05     1.18644E+04     1.91830E+09
     3.02838E+01     1.57062E+00     3.14159E+00     2.53566E-13     4.66049E+02     8.86560E+05     1.07954E+04     1.91803E+09
     3.02838E+01     1.57063E+00     3.14159E+00     2.59915E-13     4.71716E+02     1.09073E+06     9.45271E+03     1.91744E+09
     3.02838E+01     1.57065E+00     3.14159E+00     2.70237E-13     4.77203E+02     1.23511E+06     7.95944E+03     1.91614E+09
     3.02838E+01     1.57066E+00     3.14159E+00     2.88193E-13     4.82624E+02     1.26900E+06     6.43355E+03     1.91423E+09
     3.02838E+01     1.57067E+00     3.14159E+00     3.12816E-13     4.88097E+02     1.15753E+06     5.05822E+03     1.91249E+09
     3.02838E+01     1.57068E+00     3.14159E+00     3.34472E-13     4.93624E+02     9.74182E+05     3.95742E+03     1.91191E+09
     3.02838E+01     1.57069E+00     3.14159E+00     3.49032E-13     4.99099E+02     6.16554E+05     3.24776E+03     1.91170E+09
     3.02838E+01     1.57070E+00     3.14159E+00     3.67915E-13     5.04485E+02     1.26544E+05     3.05396E+03     1.91141E+09
     3.02838E+01     1.57071E+00     3.14159E+00     3.86166E-13     5.09799E+02    -1.88719E+05     3.32134E+03     1.91148E+09
     3.02838E+01     1.57072E+00     3.14159E+00     3.96219E-13     5.14970E+02    -2.07956E+05     3.76716E+03     1.91127E+09
     3.02838E+01     1.57073E+00     3.14159E+00     3.99126E-13     5.19901E+02     4.25518E+04     4.05179E+03     1.91027E+09
     3.02838E+01     1.57074E+00     3.14159E+00     4.23496E-13     5.24684E+02     2.71524E+05     4.08391E+03     1.90957E+09
     3.02838E+01     1.57075E+00     3.14159E+00     4.56155E-13     5.29482E+02     1.39234E+05     4.07110E+03     1.90847E+09
     3.02838E+01     1.57075E+00     3.14159E+00     4.93036E-13     5.34338E+02     4.05446E+05     4.00956E+03     1.90745E+09
     3.02838E+01     1.57076E+00     3.14159E+00     5.25468E-13     5.39226E+02     1.00827E+06     3.64768E+03     1.90574E+09
     3.02838E+01     1.57077E+00     3.14159E+00     5.81914E-13     5.44211E+02     1.29206E+06     3.01392E+03     1.90362E+09
     3.02838E+01     1.57077E+00     3.14159E+00     6.57050E-13     5.49442E+02     1.19499E+06     2.35869E+03     1.90142E+09
     3.02838E+01     1.57078E+00     3.14159E+00     6.59920E-13     5.54658E+02     9.65050E+05     1.84010E+03     1.89947E+09
     3.02838E+01     1.57078E+00     3.14159E+00     6.62018E-13     5.59569E+02     5.88006E+05     1.52338E+03     1.89817E+09
     3.02838E+01     1.57079E+00     3.14159E+00     1.35931E-12     5.66613E+02     2.42965E+06     8.99278E+02     1.90271E+09
     3.02838E+01     1.57079E+00     3.14159E+00     1.13714E-10     9.42766E+02     1.44925E+06     7.55014E+01     1.92108E+09
     3.02838E+01     1.57079E+00     3.14159E+00     6.24075E-10     3.20500E+03     9.94013E+02    -1.60023E+02     1.92598E+09
     3.02838E+01     1.57080E+00     3.14159E+00     9.99999E-10     7.87620E+03     1.80830E+03    -4.74593E+01     1.92606E+09
     3.08612E+01     4.86288E-02     3.14159E+00     9.27784E-21     1.44888E-02    -4.45076E+09    -4.91888E+08     6.90050E+07
     3.08612E+01     1.42876E-01     3.14159E+00     1.62273E-20     3.14805E-02    -4.27381E+09    -1.10537E+09     1.00345E+08
     3.08612E+01     2.31287E-01     3.14159E+00     1.91020E-20     3.71619E-02    -4.35051E+09    -1.12118E+09     1.35349E+08
     3.08612E+01     3.14225E-01     3.14159E+00     1.76365E-20     2.95317E-02    -4.52906E+09    -8.37707E+08     1.85712E+08
     3.08612E+01     3.92028E-01     3.14159E+00     1.64386E-20     2.42284E-02    -4.61736E+09    -5.16041E+08     2.81120E+08
     3.08612E+01     4.65013E-01     3.14159E+00     1.53842E-20     2.03803E-02    -4.64385E+09    -1.87233E+08     4.34265E+08
     3.08612E+01     5.33480E-01     3.14159E+00     1.27762E-20     1.44156E-02    -4.64470E+09     2.21972E+08     6.18099E+08
     3.08612E+01     5.97708E-01     3.14159E+00     1.14387E-20     1.17751E-02    -4.55018E+09     6.13950E+08     7.89826E+08
     3.08612E+01     6.57959E-01     3.14159E+00     1.05914E-20     1.00159E-02    -4.41438E+09     9.28471E+08     9.38302E+08
     3.08612E+01     7.14480E-01     3.14159E+00     1.00237E-20     9.06079E-03    -4.26071E+09     1.20085E+09     1.05660E+09
     3.08612E+01     7.67502E-01     3.14159E+00     9.86372E-21     8.85085E-03    -4.09325E+09     1.43607E+09     1.15490E+09
     3.08612E+01     8.17240E-01     3.14159E+00     9.93531E-21     8.97378E-03    -3.91861E+09     1.63266E+09     1.24077E+09
     3.08612E+01     8.63899E-01     3.14159E+00     1.01979E-20     9.41006E-03    -3.74555E+09     1.78335E+09     1.32068E+09
     3.08612E+01     9.07670E-01     3.14159E+00     1.08255E-20     1.04973E-02    -3.57071E+09     1.88247E+09     1.40057E+09
     3.08612E+01     9.48730E-01     3.14159E+00     1.18564E-20     1.23214E-02    -3.38145E+09     1.91916E+09     1.48260E+09
     3.08612E+01     9.87248E-01     3.14159E+00     1.29233E-20     1.44370E-02    -3.17714E+09     1.90975E+09     1.56732E+09
     3.08612E+01     1.02338E+00     3.14159E+00     1.41801E-20     1.72021E-02    -2.96048E+09     1.87027E+09     1.65513E+09
     3.08612E+01     1.05728E+00     3.14159E+00     1.55693E-20     2.06541E-02    -2.73106E+09     1.79983E+09     1.74438E+09
     3.08612E+01     1.08908E+00     3.14159E+00     1.69392E-20     2.45331E-02    -2.48997E+09     1.70777E+09     1.83059E+09
     3.08612E+01     1.11890E+00     3.14159E+00     1.82852E-20     2.88121E-02    -2.24308E+09     1.59782E+09     1.90839E+09
     3.08612E+01     1.14689E+00     3.14159E+00     1.97743E-20     3.37962E-02    -1.99741E+09     1.46626E+09     1.97393E+09
     3.08612E+01     1.17314E+00     3.14159E+00     2.15531E-20     4.03467E-02    -1.75395E+09     1.31123E+09     2.02630E+09
     3.08612E+01     1.19776E+00     3.14159E+00     2.37837E-20     4.92220E-02    -1.50093E+09     1.13956E+09     2.06696E+09
     3.08612E+01     1.22086E+00     3.14159E+00     2.61675E-20     6.01638E-02    -1.22632E+09     9.74392E+08     2.08578E+09
     3.08612E+01     1.24253E+00     3.14159E+00     2.80691E-20     6.99692E-02    -9.54233E+08     8.52127E+08     2.09408E+09
     3.08612E+01     1.26286E+00     3.14159E+00     2.88902E-20     7.53229E-02    -7.28503E+08     7.79289E+08     2.09373E+09
     3.08612E+01     1.28193E+00     3.14159E+00     2.92219E-20     7.85291E-02    -5.49644E+08     7.27296E+08     2.09246E+09
     3.08612E+01     1.29982E+00     3.14159E+00     2.95019E-20     8.13593E-02    -4.10131E+08     6.76144E+08     2.09024E+09
     3.08612E+01     1.31660E+00     3.14159E+00     2.98149E-20     8.41707E-02    -3.04553E+08     6.22622E+08     2.08729E+09
     3.08612E+01     1.33234E+00     3.14159E+00     3.00957E-20     8.69315E-02    -2.29199E+08     5.70280E+08     2.08401E+09
     3.08612E+01     1.34711E+00     3.14159E+00     3.02906E-20     8.95008E-02    -1.81084E+08     5.25838E+08     2.08105E+09
     3.08612E+01     1.36096E+00     3.14159E+00     3.04233E-20     9.16963E-02    -1.46326E+08     4.93987E+08     2.07871E+09
     3.08612E+01     1.37396E+00     3.14159E+00     3.05857E-20     9.36726E-02    -1.06246E+08     4.69078E+08     2.07646E+09
     3.08612E+01     1.38615E+00     3.14159E+00     3.08456E-20     9.57786E-02    -6.23908E+07     4.42304E+08     2.07384E+09
     3.08612E+01     1.39758E+00     3.14159E+00     3.11994E-20     9.80727E-02    -2.26839E+07     4.13771E+08     2.07075E+09
     3.08612E+01     1.40831E+00     3.14159E+00     3.15942E-20     1.00410E-01     9.93631E+06     3.90941E+08     2.06741E+09
     3.08612E+01     1.41837E+00     3.14159E+00     3.20758E-20     1.02785E-01     4.13695E+07     3.77746E+08     2.06472E+09
     3.08612E+01     1.42781E+00     3.14159E+00     3.26982E-20     1.05492E-01     8.45431E+07     3.69150E+08     2.06275E+09
     3.08612E+01     1.43667E+00     3.14159E+00     3.34771E-20     1.08692E-01     1.47588E+08     3.54964E+08     2.06110E+09
     3.08612E+01     1.44498E+00     3.14159E+00     3.44058E-20     1.12473E-01     2.25401E+08     3.22831E+08     2.05917E+09
     3.08612E+01     1.45277E+00     3.14159E+00     3.54089E-20     1.16640E-01     3.09855E+08     2.61766E+08     2.05621E+09
     3.08612E+01     1.46008E+00     3.14159E+00     3.64667E-20     1.21281E-01     3.31446E+08     1.81190E+08     2.05202E+09
     3.08612E+01     1.46694E+00     3.14159E+00     3.73762E-20     1.25348E-01     3.16462E+08     1.03077E+08     2.04660E+09
     3.08612E+01     1.47338E+00     3.14159E+00     3.80670E-20     1.28504E-01     2.78445E+08     3.81623E+07     2.04018E+09
     3.08612E+01     1.47941E+00     3.14159E+00     3.84847E-20     1.30787E-01     2.26021E+08    -8.64381E+06     2.03288E+09
     3.08612E+01     1.48507E+00     3.14159E+00     3.92940E-20     1.32383E-01     1.76641E+08    -3.39372E+07     2.02187E+09
     3.08612E+01     1.49038E+00     3.14159E+00     4.33895E-20     1.33565E-01     1.37328E+08    -3.89045E+07     2.00468E+09
     3.08612E+01     1.49537E+00     3.14159E+00     6.12883E-20     1.34644E-01     9.20987E+07    -3.24629E+07     1.98232E+09
     3.08612E+01     1.50004E+00     3.14159E+00     1.24467E-19     1.36108E-01     5.58471E+07    -2.34094E+07     1.96320E+09
     3.08612E+01     1.50442E+00     3.14159E+00     3.16925E-19     1.39053E-01     3.48878E+07    -1.47759E+07     1.95323E+09
     3.08612E+01     1.50854E+00     3.14159E+00     8.59125E-19     1.46014E-01     1.82855E+07    -7.81330E+06     1.94899E+09
     3.08612E+01     1.51240E+00     3.14159E+00     2.15054E-18     1.62068E-01     6.76750E+06    -3.19576E+06     1.94682E+09
     3.08612E+01     1.51602E+00     3.14159E+00     4.88503E-18     1.96054E-01     2.80760E+06    -1.17902E+06     1.94459E+09
     3.08612E+01     1.51941E+00     3.14159E+00     9.53972E-18     2.59313E-01     1.35570E+06    -9.62156E+05     1.94338E+09
     3.08612E+01     1.52260E+00     3.14159E+00     1.74877E-17     3.67516E-01     2.92479E+06    -6.37604E+05     1.94110E+09
     3.08612E+01     1.52558E+00     3.14159E+00     3.22602E-17     5.49867E-01     8.05862E+05     1.41848E+05     1.93833E+09
     3.08612E+01     1.52839E+00     3.14159E+00     5.56510E-17     8.44577E-01    -1.23798E+06     5.53072E+05     1.93595E+09
     3.08612E+01     1.53102E+00     3.14159E+00     9.39609E-17     1.30357E+00    -9.75788E+05     5.18683E+05     1.93398E+09
     3.08612E+01     1.53348E+00     3.14159E+00     1.55196E-16     2.00354E+00    -5.87758E+05     3.83105E+05     1.93238E+09
     3.08612E+01     1.53580E+00     3.14159E+00     2.48799E-16     3.04359E+00    -1.65487E+05     2.60940E+05     1.93109E+09
     3.08612E+01     1.53797E+00     3.14159E+00     3.87031E-16     4.54578E+00     7.31071E+04     1.55504E+05     1.93005E+09
     3.08612E+01     1.54000E+00     3.14159E+00     5.84740E-16     6.65412E+00     1.43181E+05     8.12195E+04     1.92924E+09
     3.08612E+01     1.54191E+00     3.14159E+00     8.62851E-16     9.53984E+00     1.04775E+05     5.67282E+04     1.92853E+09
     3.08612E+01     1.54371E+00     3.14159E+00     1.24682E-15     1.34060E+01     1.13488E+05     6.75625E+04     1.92786E+09
     3.08612E+01     1.54539E+00     3.14159E+00     1.75680E-15     1.84720E+01     7.03164E+04     9.12127E+04     1.92728E+09
     3.08612E+01     1.54696E+00     3.14159E+00     2.42021E-15     2.49616E+01    -4.43556E+04     1.18414E+05     1.92677E+09
     3.08612E+01     1.54844E+00     3.14159E+00     3.26134E-15     3.30990E+01    -1.31823E+05     1.37086E+05     1.92635E+09
     3.08612E+01     1.54983E+00     3.14159E+00     4.32161E-15     4.31192E+01    -1.04928E+05     1.21857E+05     1.92595E+09
     3.08612E+01     1.55113E+00     3.14159E+00     5.62741E-15     5.52578E+01    -3.35875E+04     6.26826E+04     1.92557E+09
     3.08612E+01     1.55235E+00     3.14159E+00     7.17509E-15     6.96941E+01    -1.95110E+04    -2.04132E+04     1.92528E+09
     3.08612E+01     1.55350E+00     3.14159E+00     8.99641E-15     8.65559E+01    -1.48488E+04    -9.33933E+04     1.92504E+09