 TITLE= "ZEUSMP/2 FIELD DATA AT TIME:    9.98193766621834      yr "
 VARIABLES= "X","Y","Z","rho","e","V1","V2","V3"
 ZONE I=  100 , J=  160 , K=    1 , F=POINT
     3.02838E+01     4.86288E-02     3.14159E+00     1.09628E-20     1.59771E-02    -4.74857E+09     1.66003E+08     7.65744E+03
     3.02838E+01     1.42876E-01     3.14159E+00     1.04756E-20     1.47175E-02    -4.74595E+09     4.58673E+08     2.10971E+05
     3.02838E+01     2.31287E-01     3.14159E+00     1.14009E-20     1.65463E-02    -4.71760E+09     5.76432E+08     4.34026E+05
     3.02838E+01     3.14225E-01     3.14159E+00     1.37580E-20     2.12733E-02    -4.69973E+09     5.45737E+08     8.59961E+05
     3.02838E+01     3.92028E-01     3.14159E+00     1.58957E-20     2.40422E-02    -4.71149E+09     5.79641E+08     2.56118E+06
     3.02838E+01     4.65013E-01     3.14159E+00     1.54233E-20     2.17603E-02    -4.73528E+09     7.24735E+08     9.13964E+06
     3.02838E+01     5.33480E-01     3.14159E+00     1.39544E-20     1.75524E-02    -4.74958E+09     9.27446E+08     2.63315E+07
     3.02838E+01     5.97708E-01     3.14159E+00     1.20839E-20     1.34690E-02    -4.74119E+09     1.16005E+09     5.93790E+07
     3.02838E+01     6.57959E-01     3.14159E+00     1.07105E-20     1.08897E-02    -4.71508E+09     1.37932E+09     1.09413E+08
     3.02838E+01     7.14480E-01     3.14159E+00     9.62917E-21     9.64492E-03    -4.67307E+09     1.54263E+09     1.75460E+08
     3.02838E+01     7.67502E-01     3.14159E+00     9.28161E-21     9.35633E-03    -4.62351E+09     1.65084E+09     2.65574E+08
     3.02838E+01     8.17240E-01     3.14159E+00     9.34945E-21     9.61767E-03    -4.55330E+09     1.72757E+09     3.87213E+08
     3.02838E+01     8.63899E-01     3.14159E+00     9.49974E-21     1.00874E-02    -4.44274E+09     1.78513E+09     5.45021E+08
     3.02838E+01     9.07670E-01     3.14159E+00     9.60587E-21     1.05429E-02    -4.27306E+09     1.83436E+09     7.37166E+08
     3.02838E+01     9.48730E-01     3.14159E+00     9.63830E-21     1.09326E-02    -4.03527E+09     1.87036E+09     9.54506E+08
     3.02838E+01     9.87248E-01     3.14159E+00     9.68729E-21     1.14118E-02    -3.73239E+09     1.87984E+09     1.18337E+09
     3.02838E+01     1.02338E+00     3.14159E+00     9.84998E-21     1.22390E-02    -3.37697E+09     1.85447E+09     1.40922E+09
     3.02838E+01     1.05728E+00     3.14159E+00     1.02232E-20     1.36854E-02    -2.98546E+09     1.78529E+09     1.61971E+09
     3.02838E+01     1.08908E+00     3.14159E+00     1.07889E-20     1.58076E-02    -2.57830E+09     1.67285E+09     1.80445E+09
     3.02838E+01     1.11890E+00     3.14159E+00     1.15372E-20     1.86798E-02    -2.17562E+09     1.52278E+09     1.95561E+09
     3.02838E+01     1.14689E+00     3.14159E+00     1.26202E-20     2.28955E-02    -1.78353E+09     1.33149E+09     2.07020E+09
     3.02838E+01     1.17314E+00     3.14159E+00     1.42016E-20     2.93243E-02    -1.38570E+09     1.11953E+09     2.14981E+09
     3.02838E+01     1.19776E+00     3.14159E+00     1.58109E-20     3.63759E-02    -9.86471E+08     9.61207E+08     2.19623E+09
     3.02838E+01     1.22086E+00     3.14159E+00     1.63940E-20     3.97245E-02    -6.73719E+08     8.97023E+08     2.21497E+09
     3.02838E+01     1.24253E+00     3.14159E+00     1.66664E-20     4.16283E-02    -4.49876E+08     8.79973E+08     2.21355E+09
     3.02838E+01     1.26286E+00     3.14159E+00     1.70068E-20     4.36279E-02    -2.94384E+08     8.64570E+08     2.20914E+09
     3.02838E+01     1.28193E+00     3.14159E+00     1.74551E-20     4.59784E-02    -1.89401E+08     8.43211E+08     2.20265E+09
     3.02838E+01     1.29982E+00     3.14159E+00     1.79612E-20     4.85282E-02    -1.26075E+08     8.18708E+08     2.19544E+09
     3.02838E+01     1.31660E+00     3.14159E+00     1.84640E-20     5.11199E-02    -8.29431E+07     7.94701E+08     2.18818E+09
     3.02838E+01     1.33234E+00     3.14159E+00     1.89686E-20     5.36652E-02    -4.40896E+07     7.72151E+08     2.18095E+09
     3.02838E+01     1.34711E+00     3.14159E+00     1.94598E-20     5.61096E-02    -2.92907E+07     7.51443E+08     2.17420E+09
     3.02838E+01     1.36096E+00     3.14159E+00     1.98639E-20     5.82170E-02    -4.10869E+07     7.34695E+08     2.16816E+09
     3.02838E+01     1.37396E+00     3.14159E+00     2.01828E-20     5.98942E-02    -5.03827E+07     7.22303E+08     2.16328E+09
     3.02838E+01     1.38615E+00     3.14159E+00     2.04907E-20     6.13947E-02    -3.86790E+07     7.11738E+08     2.15929E+09
     3.02838E+01     1.39758E+00     3.14159E+00     2.08155E-20     6.30191E-02     9.15017E+05     6.99857E+08     2.15528E+09
     3.02838E+01     1.40831E+00     3.14159E+00     2.11327E-20     6.46313E-02     3.17537E+07     6.69346E+08     2.15090E+09
     3.02838E+01     1.41837E+00     3.14159E+00     2.15836E-20     6.69771E-02     6.15244E+07     6.05195E+08     2.14599E+09
     3.02838E+01     1.42781E+00     3.14159E+00     2.20858E-20     6.96685E-02     8.26456E+07     5.17272E+08     2.14050E+09
     3.02838E+01     1.43667E+00     3.14159E+00     2.25509E-20     7.22459E-02     9.34220E+07     4.21394E+08     2.13444E+09
     3.02838E+01     1.44498E+00     3.14159E+00     2.29499E-20     7.45210E-02     9.14344E+07     3.30111E+08     2.12800E+09
     3.02838E+01     1.45277E+00     3.14159E+00     2.32550E-20     7.63221E-02     8.53501E+07     2.50237E+08     2.12117E+09
     3.02838E+01     1.46008E+00     3.14159E+00     2.34838E-20     7.77314E-02     7.64278E+07     1.82939E+08     2.11397E+09
     3.02838E+01     1.46694E+00     3.14159E+00     2.36491E-20     7.88187E-02     6.91003E+07     1.26911E+08     2.10596E+09
     3.02838E+01     1.47338E+00     3.14159E+00     2.37819E-20     7.97039E-02     5.76157E+07     8.15094E+07     2.09677E+09
     3.02838E+01     1.47941E+00     3.14159E+00     2.39181E-20     8.04276E-02     4.05569E+07     4.86277E+07     2.08676E+09
     3.02838E+01     1.48507E+00     3.14159E+00     2.40907E-20     8.10144E-02     2.53614E+07     2.79827E+07     2.07659E+09
     3.02838E+01     1.49038E+00     3.14159E+00     2.42423E-20     8.15116E-02     1.53335E+07     1.60972E+07     2.06731E+09
     3.02838E+01     1.49537E+00     3.14159E+00     2.43089E-20     8.19481E-02     9.38375E+06     9.39815E+06     2.06068E+09
     3.02838E+01     1.50004E+00     3.14159E+00     2.42831E-20     8.23374E-02     4.89393E+06     5.81736E+06     2.05281E+09
     3.02838E+01     1.50442E+00     3.14159E+00     2.42998E-20     8.26850E-02     3.95880E+06     3.80328E+06     2.04050E+09
     3.02838E+01     1.50854E+00     3.14159E+00     5.20471E-20     8.31735E-02    -5.63955E+06     3.04274E+06     2.01495E+09
     3.02838E+01     1.51240E+00     3.14159E+00     2.16942E-19     8.47278E-02    -1.99835E+07     2.70800E+06     2.00053E+09
     3.02838E+01     1.51602E+00     3.14159E+00     4.01495E-19     8.79562E-02    -8.81747E+06     2.07922E+06     1.99456E+09
     3.02838E+01     1.51941E+00     3.14159E+00     7.77829E-19     9.35438E-02     8.78951E+05     1.63116E+06     1.99022E+09
     3.02838E+01     1.52260E+00     3.14159E+00     1.72439E-18     1.04377E-01    -3.45844E+05     1.31664E+06     1.98721E+09
     3.02838E+01     1.52558E+00     3.14159E+00     2.90154E-18     1.22597E-01    -1.87339E+06     1.26863E+06     1.98432E+09
     3.02838E+01     1.52839E+00     3.14159E+00     4.44308E-18     1.48944E-01    -2.07741E+06     1.32262E+06     1.98205E+09
     3.02838E+01     1.53102E+00     3.14159E+00     7.35304E-18     1.87538E-01    -2.78255E+06     1.42959E+06     1.97937E+09
     3.02838E+01     1.53348E+00     3.14159E+00     1.19495E-17     2.45191E-01    -2.36600E+06     1.52859E+06     1.97610E+09
     3.02838E+01     1.53580E+00     3.14159E+00     1.88115E-17     3.29094E-01    -1.29849E+06     1.52967E+06     1.97282E+09
     3.02838E+01     1.53797E+00     3.14159E+00     2.97608E-17     4.50174E-01    -4.31785E+04     1.40097E+06     1.96988E+09
     3.02838E+01     1.54000E+00     3.14159E+00     4.63791E-17     6.23540E-01     4.36697E+05     1.20367E+06     1.96772E+09
     3.02838E+01     1.54191E+00     3.14159E+00     6.93059E-17     8.64738E-01     6.78620E+05     1.00213E+06     1.96659E+09
     3.02838E+01     1.54371E+00     3.14159E+00     9.98577E-17     1.18823E+00     8.28948E+05     8.16496E+05     1.96610E+09
     3.02838E+01     1.54539E+00     3.14159E+00     1.39769E-16     1.60919E+00     9.75201E+05     6.58875E+05     1.96578E+09
     3.02838E+01     1.54696E+00     3.14159E+00     1.95348E-16     2.15089E+00     1.10131E+06     5.21416E+05     1.96518E+09
     3.02838E+01     1.54844E+00     3.14159E+00     2.72311E-16     2.84719E+00     1.14440E+06     4.01292E+05     1.96437E+09
     3.02838E+01     1.54983E+00     3.14159E+00     3.76920E-16     3.73837E+00     1.06859E+06     3.05581E+05     1.96370E+09
     3.02838E+01     1.55113E+00     3.14159E+00     5.09104E-16     4.86064E+00     9.10742E+05     2.42469E+05     1.96302E+09
     3.02838E+01     1.55235E+00     3.14159E+00     6.68994E-16     6.23865E+00     6.67349E+05     2.07827E+05     1.96219E+09
     3.02838E+01     1.55350E+00     3.14159E+00     8.58614E-16     7.89073E+00     3.13201E+05     2.00736E+05     1.96135E+09
     3.02838E+01     1.55457E+00     3.14159E+00     1.08720E-15     9.83763E+00    -1.75303E+05     2.30524E+05     1.96060E+09
     3.02838E+01     1.55558E+00     3.14159E+00     1.36115E-15     1.21048E+01    -6.28583E+05     2.97103E+05     1.96001E+09
     3.02838E+01     1.55653E+00     3.14159E+00     1.65390E-15     1.46926E+01    -6.77130E+05     3.71601E+05     1.95988E+09
     3.02838E+01     1.55742E+00     3.14159E+00     1.99064E-15     1.75934E+01    -5.06320E+05     4.22459E+05     1.96020E+09
     3.02838E+01     1.55825E+00     3.14159E+00     2.40511E-15     2.08406E+01    -3.12638E+05     4.44765E+05     1.96040E+09
     3.02838E+01     1.55903E+00     3.14159E+00     2.91444E-15     2.44908E+01    -3.28279E+05     4.55184E+05     1.96020E+09
     3.02838E+01     1.55976E+00     3.14159E+00     3.48296E-15     2.85697E+01    -2.94410E+05     4.61421E+05     1.95998E+09
     3.02838E+01     1.56045E+00     3.14159E+00     4.03777E-15     3.30268E+01     5.65718E+03     4.55271E+05     1.95991E+09
     3.02838E+01     1.56109E+00     3.14159E+00     4.63364E-15     3.78058E+01     7.69159E+04     4.37964E+05     1.95982E+09
     3.02838E+01     1.56170E+00     3.14159E+00     5.31793E-15     4.29075E+01    -1.35667E+04     4.22699E+05     1.95958E+09
     3.02838E+01     1.56226E+00     3.14159E+00     6.11726E-15     4.83638E+01    -5.00565E+05     4.26185E+05     1.95912E+09
     3.02838E+01     1.56280E+00     3.14159E+00     7.03837E-15     5.42089E+01    -1.09478E+06     4.57968E+05     1.95862E+09
     3.02838E+01     1.56330E+00     3.14159E+00     7.95894E-15     6.04174E+01    -8.21639E+05     4.93697E+05     1.95805E+09
     3.02838E+01     1.56376E+00     3.14159E+00     8.71058E-15     6.68497E+01    -2.06421E+05     5.03997E+05     1.95739E+09
     3.02838E+01     1.56420E+00     3.14159E+00     9.31418E-15     7.33346E+01    -1.54884E+05     4.98117E+05     1.95699E+09
     3.02838E+01     1.56461E+00     3.14159E+00     1.01424E-14     7.98618E+01     9.12101E+03     4.87024E+05     1.95679E+09
     3.02838E+01     1.56500E+00     3.14159E+00     1.11601E-14     8.65281E+01     2.18437E+05     4.69815E+05     1.95647E+09
     3.02838E+01     1.56536E+00     3.14159E+00     1.22623E-14     9.33681E+01    -3.14280E+05     4.61081E+05     1.95610E+09
     3.02838E+01     1.56570E+00     3.14159E+00     1.33827E-14     1.00358E+02    -6.16785E+05     4.66716E+05     1.95564E+09
     3.02838E+01     1.56602E+00     3.14159E+00     1.45134E-14     1.07456E+02    -5.69907E+04     4.68180E+05     1.95526E+09
     3.02838E+01     1.56632E+00     3.14159E+00     1.56084E-14     1.14613E+02     1.69518E+05     4.57967E+05     1.95494E+09
     3.02838E+01     1.56660E+00     3.14159E+00     1.65282E-14     1.21746E+02     2.59242E+05     4.44313E+05     1.95447E+09
     3.02838E+01     1.56687E+00     3.14159E+00     1.74265E-14     1.28789E+02     5.63006E+05     4.26590E+05     1.95399E+09
     3.02838E+01     1.56711E+00     3.14159E+00     1.84330E-14     1.35741E+02     6.21635E+05     4.05486E+05     1.95365E+09
     3.02838E+01     1.56734E+00     3.14159E+00     1.95354E-14     1.42622E+02     3.55742E+05     3.88805E+05     1.95330E+09
     3.02838E+01     1.56756E+00     3.14159E+00     2.08490E-14     1.49466E+02    -6.53663E+05     3.87151E+05     1.95280E+09
     3.02838E+01     1.56777E+00     3.14159E+00     2.27623E-14     1.56376E+02    -2.54138E+06     4.13156E+05     1.95218E+09
     3.02838E+01     1.56796E+00     3.14159E+00     2.52411E-14     1.63488E+02    -4.91508E+06     4.73738E+05     1.95165E+09
     3.02838E+01     1.56814E+00     3.14159E+00     2.77756E-14     1.70833E+02    -6.60678E+06     5.61600E+05     1.95132E+09
     3.02838E+01     1.56831E+00     3.14159E+00     3.00187E-14     1.78322E+02    -6.85936E+06     6.55910E+05     1.95133E+09
     3.02838E+01     1.56846E+00     3.14159E+00     3.20056E-14     1.85842E+02    -6.18902E+06     7.38072E+05     1.95140E+09
     3.02838E+01     1.56861E+00     3.14159E+00     3.37659E-14     1.93308E+02    -3.47671E+06     7.90281E+05     1.95144E+09
     3.02838E+01     1.56875E+00     3.14159E+00     3.51965E-14     2.00644E+02     4.18228E+05     7.97023E+05     1.95133E+09
     3.02838E+01     1.56888E+00     3.14159E+00     3.66647E-14     2.07804E+02     2.81655E+06     7.63341E+05     1.95104E+09
     3.02838E+01     1.56900E+00     3.14159E+00     3.82280E-14     2.14793E+02     4.28659E+06     7.06498E+05     1.95061E+09
     3.02838E+01     1.56912E+00     3.14159E+00     3.99589E-14     2.21626E+02     5.25502E+06     6.39076E+05     1.94992E+09
     3.02838E+01     1.56923E+00     3.14159E+00     4.18939E-14     2.28326E+02     5.71281E+06     5.68638E+05     1.94899E+09
     3.02838E+01     1.56933E+00     3.14159E+00     4.40694E-14     2.34916E+02     6.00024E+06     4.99628E+05     1.94781E+09
     3.02838E+01     1.56942E+00     3.14159E+00     4.65475E-14     2.41423E+02     6.03190E+06     4.34317E+05     1.94640E+09
     3.02838E+01     1.56951E+00     3.14159E+00     4.93569E-14     2.47874E+02     5.81376E+06     3.74914E+05     1.94476E+09
     3.02838E+01     1.56959E+00     3.14159E+00     5.23979E-14     2.54286E+02     5.42108E+06     3.22791E+05     1.94300E+09
     3.02838E+01     1.56967E+00     3.14159E+00     5.53751E-14     2.60649E+02     5.00724E+06     2.78028E+05     1.94123E+09
     3.02838E+01     1.56975E+00     3.14159E+00     5.79344E-14     2.66917E+02     4.59466E+06     2.39932E+05     1.93952E+09
     3.02838E+01     1.56981E+00     3.14159E+00     6.00411E-14     2.73032E+02     4.20151E+06     2.07742E+05     1.93790E+09
     3.02838E+01     1.56988E+00     3.14159E+00     6.19581E-14     2.78958E+02     3.84354E+06     1.80594E+05     1.93636E+09
     3.02838E+01     1.56994E+00     3.14159E+00     6.39154E-14     2.84688E+02     3.54515E+06     1.57595E+05     1.93493E+09
     3.02838E+01     1.57000E+00     3.14159E+00     6.60040E-14     2.90231E+02     3.30361E+06     1.37941E+05     1.93363E+09
     3.02838E+01     1.57005E+00     3.14159E+00     6.82544E-14     2.95600E+02     3.13080E+06     1.20912E+05     1.93245E+09
     3.02838E+01     1.57010E+00     3.14159E+00     7.07769E-14     3.00811E+02     3.00652E+06     1.05914E+05     1.93134E+09
     3.02838E+01     1.57015E+00     3.14159E+00     7.37782E-14     3.05890E+02     2.93591E+06     9.24898E+04     1.93028E+09
     3.02838E+01     1.57019E+00     3.14159E+00     7.73664E-14     3.10868E+02     2.88694E+06     8.03036E+04     1.92926E+09
     3.02838E+01     1.57023E+00     3.14159E+00     8.13126E-14     3.15768E+02     2.85653E+06     6.91431E+04     1.92826E+09
     3.02838E+01     1.57027E+00     3.14159E+00     8.51785E-14     3.20588E+02     2.82732E+06     5.88729E+04     1.92723E+09
     3.02838E+01     1.57031E+00     3.14159E+00     8.87574E-14     3.25308E+02     2.79210E+06     4.94333E+04     1.92609E+09
     3.02838E+01     1.57034E+00     3.14159E+00     9.22698E-14     3.29915E+02     2.72383E+06     4.08293E+04     1.92481E+09
     3.02838E+01     1.57037E+00     3.14159E+00     9.62034E-14     3.34412E+02     2.58189E+06     3.31732E+04     1.92342E+09
     3.02838E+01     1.57040E+00     3.14159E+00     1.00986E-13     3.38823E+02     2.34496E+06     2.66550E+04     1.92211E+09
     3.02838E+01     1.57043E+00     3.14159E+00     1.06494E-13     3.43176E+02     2.07553E+06     2.13568E+04     1.92109E+09
     3.02838E+01     1.57046E+00     3.14159E+00     1.11761E-13     3.47469E+02     1.79470E+06     1.72090E+04     1.92036E+09
     3.02838E+01     1.57048E+00     3.14159E+00     1.16517E-13     3.51679E+02     1.58828E+06     1.40038E+04     1.91969E+09
     3.02838E+01     1.57051E+00     3.14159E+00     1.21904E-13     3.55803E+02     1.52345E+06     1.13660E+04     1.91896E+09
     3.02838E+01     1.57053E+00     3.14159E+00     1.29658E-13     3.59884E+02     1.52986E+06     8.98006E+03     1.91825E+09
     3.02838E+01     1.57055E+00     3.14159E+00     1.41319E-13     3.64006E+02     1.57519E+06     6.69923E+03     1.91749E+09
     3.02838E+01     1.57057E+00     3.14159E+00     1.56824E-13     3.68259E+02     1.63377E+06     4.46092E+03     1.91636E+09
     3.02838E+01     1.57058E+00     3.14159E+00     1.76431E-13     3.72718E+02     1.56426E+06     2.37556E+03     1.91493E+09
     3.02838E+01     1.57060E+00     3.14159E+00     2.01634E-13     3.77461E+02     1.31484E+06     7.14599E+02     1.91365E+09
     3.02838E+01     1.57062E+00     3.14159E+00     2.31311E-13     3.82556E+02     1.17345E+06    -4.96433E+02     1.91263E+09
     3.02838E+01     1.57063E+00     3.14159E+00     2.61310E-13     3.87993E+02     1.06652E+06    -1.42480E+03     1.91177E+09
     3.02838E+01     1.57065E+00     3.14159E+00     2.88665E-13     3.93685E+02     8.64774E+05    -2.06046E+03     1.91099E+09
     3.02838E+01     1.57066E+00     3.14159E+00     3.10998E-13     3.99507E+02     5.33467E+05    -2.27998E+03     1.91034E+09
     3.02838E+01     1.57067E+00     3.14159E+00     3.27046E-13     4.05316E+02     3.03136E+05    -2.11218E+03     1.90978E+09
     3.02838E+01     1.57068E+00     3.14159E+00     3.37596E-13     4.10992E+02     1.16984E+05    -1.69798E+03     1.90937E+09
     3.02838E+01     1.57069E+00     3.14159E+00     3.43646E-13     4.16449E+02    -6.04230E+04    -1.07775E+03     1.90923E+09
     3.02838E+01     1.57070E+00     3.14159E+00     3.50267E-13     4.21662E+02    -6.08183E+04    -3.78511E+02     1.90940E+09
     3.02838E+01     1.57071E+00     3.14159E+00     3.57355E-13     4.26649E+02     1.56968E+04     2.09303E+02     1.90944E+09
     3.02838E+01     1.57072E+00     3.14159E+00     3.73351E-13     4.31478E+02    -2.89895E+05     9.38622E+02     1.90994E+09
     3.02838E+01     1.57073E+00     3.14159E+00     4.00375E-13     4.36275E+02    -5.34264E+05     2.04882E+03     1.91104E+09
     3.02838E+01     1.57074E+00     3.14159E+00     4.23408E-13     4.41065E+02     1.90314E+05     2.80004E+03     1.91084E+09
     3.02838E+01     1.57075E+00     3.14159E+00     4.63892E-13     4.45905E+02     7.92939E+05     2.79638E+03     1.91187E+09
     3.02838E+01     1.57075E+00     3.14159E+00     5.01956E-13     4.50846E+02     1.08951E+06     2.44919E+03     1.91132E+09
     3.02838E+01     1.57076E+00     3.14159E+00     5.31426E-13     4.55805E+02     9.83769E+05     2.05185E+03     1.90967E+09
     3.02838E+01     1.57077E+00     3.14159E+00     5.60772E-13     4.60722E+02     1.02164E+06     1.70474E+03     1.90757E+09
     3.02838E+01     1.57077E+00     3.14159E+00     6.43106E-13     4.65805E+02     1.03807E+06     1.36504E+03     1.90619E+09
     3.02838E+01     1.57078E+00     3.14159E+00     7.67439E-13     4.71391E+02     1.00839E+06     1.05259E+03     1.90597E+09
     3.02838E+01     1.57078E+00     3.14159E+00     1.06767E-12     4.78209E+02     1.59215E+06     6.15115E+02     1.90733E+09
     3.02838E+01     1.57079E+00     3.14159E+00     4.25523E-12     4.96758E+02     1.78353E+06    -1.03249E+02     1.91125E+09
     3.02838E+01     1.57079E+00     3.14159E+00     1.16928E-10     8.92886E+02    -2.52824E+06    -3.15438E+02     1.92015E+09
     3.02838E+01     1.57079E+00     3.14159E+00     6.30809E-10     3.18563E+03     8.72847E+02    -6.99939E+01     1.92600E+09
     3.02838E+01     1.57080E+00     3.14159E+00     1.00000E-09     7.87620E+03     1.84288E+03    -2.00799E+01     1.92606E+09
     3.08612E+01     4.86288E-02     3.14159E+00     1.08420E-20     1.56845E-02    -4.70980E+09     1.61956E+08     8.95903E+03
     3.08612E+01     1.42876E-01     3.14159E+00     1.03227E-20     1.43591E-02    -4.70838E+09     4.50251E+08     2.18200E+05
     3.08612E+01     2.31287E-01     3.14159E+00     1.10413E-20     1.56543E-02    -4.68357E+09     5.71207E+08     4.39339E+05
     3.08612E+01     3.14225E-01     3.14159E+00     1.32707E-20     1.99365E-02    -4.66768E+09     5.40320E+08     8.70702E+05
     3.08612E+01     3.92028E-01     3.14159E+00     1.53959E-20     2.27085E-02    -4.67880E+09     5.65462E+08     2.63865E+06
     3.08612E+01     4.65013E-01     3.14159E+00     1.49446E-20     2.05564E-02    -4.70296E+09     7.01764E+08     9.59298E+06
     3.08612E+01     5.33480E-01     3.14159E+00     1.34915E-20     1.65307E-02    -4.71710E+09     9.00225E+08     2.78694E+07
     3.08612E+01     5.97708E-01     3.14159E+00     1.16621E-20     1.26701E-02    -4.70832E+09     1.13371E+09     6.30797E+07
     3.08612E+01     6.57959E-01     3.14159E+00     1.03304E-20     1.02869E-02    -4.68100E+09     1.35225E+09     1.15941E+08
     3.08612E+01     7.14480E-01     3.14159E+00     9.25998E-21     9.11637E-03    -4.63859E+09     1.51026E+09     1.85869E+08
     3.08612E+01     7.67502E-01     3.14159E+00     9.01444E-21     8.93866E-03    -4.58773E+09     1.61383E+09     2.82185E+08
     3.08612E+01     8.17240E-01     3.14159E+00     9.10371E-21     9.24451E-03    -4.51388E+09     1.68636E+09     4.12518E+08
     3.08612E+01     8.63899E-01     3.14159E+00     9.26926E-21     9.73490E-03    -4.39633E+09     1.73834E+09     5.81400E+08
     3.08612E+01     9.07670E-01     3.14159E+00     9.37303E-21     1.01767E-02    -4.21625E+09     1.77992E+09     7.85977E+08
     3.08612E+01     9.48730E-01     3.14159E+00     9.37726E-21     1.05180E-02    -3.96573E+09     1.80306E+09     1.01521E+09
     3.08612E+01     9.87248E-01     3.14159E+00     9.39818E-21     1.09546E-02    -3.64891E+09     1.79692E+09     1.25318E+09
     3.08612E+01     1.02338E+00     3.14159E+00     9.54562E-21     1.17744E-02    -3.27967E+09     1.74969E+09     1.48375E+09
     3.08612E+01     1.05728E+00     3.14159E+00     9.89028E-21     1.31819E-02    -2.87707E+09     1.65183E+09     1.69332E+09
     3.08612E+01     1.08908E+00     3.14159E+00     1.03867E-20     1.51570E-02    -2.46507E+09     1.51503E+09     1.87038E+09
     3.08612E+01     1.11890E+00     3.14159E+00     1.10003E-20     1.76602E-02    -2.06733E+09     1.35373E+09     2.00650E+09
     3.08612E+01     1.14689E+00     3.14159E+00     1.18579E-20     2.11059E-02    -1.69372E+09     1.16800E+09     2.10038E+09
     3.08612E+01     1.17314E+00     3.14159E+00     1.32336E-20     2.66074E-02    -1.32610E+09     9.63496E+08     2.16143E+09
     3.08612E+01     1.19776E+00     3.14159E+00     1.48016E-20     3.35883E-02    -9.55630E+08     7.85323E+08     2.18785E+09
     3.08612E+01     1.22086E+00     3.14159E+00     1.57493E-20     3.85352E-02    -6.47398E+08     6.70902E+08     2.18533E+09
     3.08612E+01     1.24253E+00     3.14159E+00     1.62607E-20     4.16288E-02    -4.18788E+08     5.94566E+08     2.18097E+09
     3.08612E+01     1.26286E+00     3.14159E+00     1.67309E-20     4.44517E-02    -2.56028E+08     5.16124E+08     2.17490E+09
     3.08612E+01     1.28193E+00     3.14159E+00     1.72390E-20     4.74155E-02    -1.45097E+08     4.25941E+08     2.16747E+09
     3.08612E+01     1.29982E+00     3.14159E+00     1.77243E-20     5.04073E-02    -8.32296E+07     3.35881E+08     2.15902E+09
     3.08612E+01     1.31660E+00     3.14159E+00     1.82485E-20     5.31272E-02    -4.01899E+07     2.53462E+08     2.15045E+09
     3.08612E+01     1.33234E+00     3.14159E+00     1.87429E-20     5.57523E-02     9.32035E+06     1.68652E+08     2.14235E+09
     3.08612E+01     1.34711E+00     3.14159E+00     1.92573E-20     5.85708E-02     2.08580E+07     8.47392E+07     2.13526E+09
     3.08612E+01     1.36096E+00     3.14159E+00     1.96595E-20     6.09711E-02    -1.87913E+07     3.03270E+07     2.12435E+09
     3.08612E+01     1.37396E+00     3.14159E+00     2.05370E-20     6.24106E-02    -5.63021E+07     1.96190E+07     2.12562E+09
     3.08612E+01     1.38615E+00     3.14159E+00     2.13652E-20     6.32741E-02    -6.28830E+07     4.03542E+07     2.12696E+09
     3.08612E+01     1.39758E+00     3.14159E+00     2.14960E-20     6.39827E-02    -3.21702E+07     7.64358E+07     2.12540E+09
     3.08612E+01     1.40831E+00     3.14159E+00     2.17345E-20     6.54997E-02     5.22268E+07     1.01216E+08     2.12310E+09
     3.08612E+01     1.41837E+00     3.14159E+00     2.20479E-20     6.79487E-02     1.29157E+08     9.97556E+07     2.12070E+09
     3.08612E+01     1.42781E+00     3.14159E+00     2.23956E-20     7.08146E-02     1.84924E+08     8.10270E+07     2.11717E+09
     3.08612E+01     1.43667E+00     3.14159E+00     2.27662E-20     7.36318E-02     2.13148E+08     5.34928E+07     2.11202E+09
     3.08612E+01     1.44498E+00     3.14159E+00     2.31182E-20     7.60472E-02     2.15102E+08     2.25776E+07     2.10547E+09
     3.08612E+01     1.45277E+00     3.14159E+00     2.34226E-20     7.80043E-02     1.96415E+08    -5.59754E+06     2.09816E+09
     3.08612E+01     1.46008E+00     3.14159E+00     2.37072E-20     7.94880E-02     1.69943E+08    -2.56371E+07     2.08978E+09
     3.08612E+01     1.46694E+00     3.14159E+00     2.41138E-20     8.06187E-02     1.39558E+08    -3.53597E+07     2.07866E+09
     3.08612E+01     1.47338E+00     3.14159E+00     2.53509E-20     8.14856E-02     1.03773E+08    -3.44001E+07     2.06222E+09
     3.08612E+01     1.47941E+00     3.14159E+00     3.02538E-20     8.22323E-02     6.60481E+07    -2.75912E+07     2.03845E+09
     3.08612E+01     1.48507E+00     3.14159E+00     4.51741E-20     8.30495E-02     3.70828E+07    -1.95700E+07     2.01105E+09
     3.08612E+01     1.49038E+00     3.14159E+00     8.37406E-20     8.42375E-02     1.68251E+07    -1.16538E+07     1.98862E+09
     3.08612E+01     1.49537E+00     3.14159E+00     1.67428E-19     8.62750E-02     6.60932E+06    -4.59994E+06     1.97494E+09
     3.08612E+01     1.50004E+00     3.14159E+00     3.19441E-19     8.98080E-02     2.91704E+06     1.47428E+05     1.96790E+09
     3.08612E+01     1.50442E+00     3.14159E+00     6.45447E-19     9.61450E-02     2.26287E+06     3.05295E+06     1.96397E+09
     3.08612E+01     1.50854E+00     3.14159E+00     1.36483E-18     1.08145E-01    -5.69951E+06     4.53626E+06     1.96021E+09
     3.08612E+01     1.51240E+00     3.14159E+00     2.65599E-18     1.29843E-01    -9.68514E+06     3.26424E+06     1.95602E+09
     3.08612E+01     1.51602E+00     3.14159E+00     5.15612E-18     1.68151E-01    -2.04423E+06     7.38144E+05     1.95171E+09
     3.08612E+01     1.51941E+00     3.14159E+00     9.33635E-18     2.32634E-01     1.49062E+06    -2.00744E+05     1.94811E+09
     3.08612E+01     1.52260E+00     3.14159E+00     1.59604E-17     3.35006E-01    -1.04009E+06     1.91219E+05     1.94500E+09
     3.08612E+01     1.52558E+00     3.14159E+00     2.68135E-17     4.92797E-01    -1.44061E+06     5.60690E+05     1.94198E+09
     3.08612E+01     1.52839E+00     3.14159E+00     4.55669E-17     7.36557E-01    -7.44840E+05     5.07340E+05     1.93900E+09
     3.08612E+01     1.53102E+00     3.14159E+00     7.57558E-17     1.10940E+00    -7.54423E+05     2.00718E+05     1.93640E+09
     3.08612E+01     1.53348E+00     3.14159E+00     1.23166E-16     1.66822E+00    -4.48004E+05    -1.42756E+05     1.93417E+09
     3.08612E+01     1.53580E+00     3.14159E+00     1.96299E-16     2.49002E+00     1.23682E+05    -4.00294E+05     1.93234E+09
     3.08612E+01     1.53797E+00     3.14159E+00     3.05726E-16     3.67407E+00     7.25562E+05    -5.30754E+05     1.93088E+09
     3.08612E+01     1.54000E+00     3.14159E+00     4.65074E-16     5.34244E+00     1.10958E+06    -5.61406E+05     1.92972E+09
     3.08612E+01     1.54191E+00     3.14159E+00     6.89509E-16     7.63826E+00     1.24914E+06    -5.35363E+05     1.92879E+09
     3.08612E+01     1.54371E+00     3.14159E+00     9.99657E-16     1.07287E+01     1.30396E+06    -4.81768E+05     1.92796E+09
     3.08612E+01     1.54539E+00     3.14159E+00     1.42356E-15     1.48089E+01     1.38121E+06    -4.11018E+05     1.92720E+09
     3.08612E+01     1.54696E+00     3.14159E+00     1.98577E-15     2.01000E+01     1.49030E+06    -3.33129E+05     1.92655E+09
     3.08612E+01     1.54844E+00     3.14159E+00     2.70176E-15     2.68060E+01     1.52387E+06    -2.59059E+05     1.92602E+09
     3.08612E+01     1.54983E+00     3.14159E+00     3.58428E-15     3.51076E+01     1.39591E+06    -1.93617E+05     1.92562E+09
     3.08612E+01     1.55113E+00     3.14159E+00     4.66647E-15     4.51716E+01     1.11354E+06    -1.31055E+05     1.92524E+09
     3.08612E+01     1.55235E+00     3.14159E+00     5.97981E-15     5.71738E+01     7.65826E+05    -7.26804E+04     1.92487E+09
     3.08612E+01     1.55350E+00     3.14159E+00     7.56327E-15     7.12958E+01     3.61438E+05    -2.93345E+04     1.92450E+09