 TITLE= "ZEUSMP/2 FIELD DATA AT TIME:   0.998195423866184      yr "
 VARIABLES= "X","Y","Z","rho","e","V1","V2","V3"
 ZONE I=  100 , J=  160 , K=    1 , F=POINT
     3.02838E+01     4.86288E-02     3.14159E+00     1.10990E-21     2.01050E-03    -4.51460E+09     1.17927E+08     9.86618E+05
     3.02838E+01     1.42876E-01     3.14159E+00     1.03919E-21     1.84818E-03    -4.51187E+09     3.55743E+08     4.02546E+07
     3.02838E+01     2.31287E-01     3.14159E+00     9.53752E-22     1.70130E-03    -4.49371E+09     5.93874E+08     9.74582E+07
     3.02838E+01     3.14225E-01     3.14159E+00     8.99086E-22     1.59511E-03    -4.46088E+09     8.22684E+08     1.63818E+08
     3.02838E+01     3.92028E-01     3.14159E+00     8.88245E-22     1.55734E-03    -4.41460E+09     1.03373E+09     2.37538E+08
     3.02838E+01     4.65013E-01     3.14159E+00     9.10245E-22     1.61155E-03    -4.35599E+09     1.20920E+09     3.15914E+08
     3.02838E+01     5.33480E-01     3.14159E+00     9.83109E-22     1.79906E-03    -4.29068E+09     1.32467E+09     3.99048E+08
     3.02838E+01     5.97708E-01     3.14159E+00     1.10241E-21     2.11063E-03    -4.21680E+09     1.39045E+09     4.86943E+08
     3.02838E+01     6.57959E-01     3.14159E+00     1.24564E-21     2.48915E-03    -4.12928E+09     1.43827E+09     5.77126E+08
     3.02838E+01     7.14480E-01     3.14159E+00     1.39800E-21     2.90240E-03    -4.02942E+09     1.48000E+09     6.67055E+08
     3.02838E+01     7.67502E-01     3.14159E+00     1.56133E-21     3.37583E-03    -3.92013E+09     1.51204E+09     7.56518E+08
     3.02838E+01     8.17240E-01     3.14159E+00     1.72700E-21     3.89908E-03    -3.80107E+09     1.53263E+09     8.46507E+08
     3.02838E+01     8.63899E-01     3.14159E+00     1.88191E-21     4.42967E-03    -3.67430E+09     1.54656E+09     9.38638E+08
     3.02838E+01     9.07670E-01     3.14159E+00     2.02496E-21     4.94707E-03    -3.53757E+09     1.55658E+09     1.03466E+09
     3.02838E+01     9.48730E-01     3.14159E+00     2.16620E-21     5.45397E-03    -3.38510E+09     1.55925E+09     1.13625E+09
     3.02838E+01     9.87248E-01     3.14159E+00     2.31943E-21     5.97090E-03    -3.21053E+09     1.55058E+09     1.24464E+09
     3.02838E+01     1.02338E+00     3.14159E+00     2.49232E-21     6.51241E-03    -3.00789E+09     1.52677E+09     1.35979E+09
     3.02838E+01     1.05728E+00     3.14159E+00     2.68720E-21     7.08929E-03    -2.77317E+09     1.48201E+09     1.47995E+09
     3.02838E+01     1.08908E+00     3.14159E+00     2.91426E-21     7.77675E-03    -2.50232E+09     1.40623E+09     1.60192E+09
     3.02838E+01     1.11890E+00     3.14159E+00     3.20343E-21     8.73624E-03    -2.18860E+09     1.28633E+09     1.72189E+09
     3.02838E+01     1.14689E+00     3.14159E+00     3.58856E-21     1.01651E-02    -1.82112E+09     1.12784E+09     1.83554E+09
     3.02838E+01     1.17314E+00     3.14159E+00     4.02719E-21     1.19057E-02    -1.40228E+09     9.83114E+08     1.93568E+09
     3.02838E+01     1.19776E+00     3.14159E+00     4.30478E-21     1.29489E-02    -1.01081E+09     9.07759E+08     2.01295E+09
     3.02838E+01     1.22086E+00     3.14159E+00     4.44299E-21     1.33444E-02    -6.99102E+08     8.87598E+08     2.06244E+09
     3.02838E+01     1.24253E+00     3.14159E+00     4.55166E-21     1.36931E-02    -4.64666E+08     8.80597E+08     2.08834E+09
     3.02838E+01     1.26286E+00     3.14159E+00     4.66384E-21     1.41228E-02    -3.02857E+08     8.70459E+08     2.09722E+09
     3.02838E+01     1.28193E+00     3.14159E+00     4.79144E-21     1.46743E-02    -1.99009E+08     8.54463E+08     2.09602E+09
     3.02838E+01     1.29982E+00     3.14159E+00     4.92652E-21     1.52937E-02    -1.33075E+08     8.35281E+08     2.09297E+09
     3.02838E+01     1.31660E+00     3.14159E+00     5.06372E-21     1.59503E-02    -7.85491E+07     8.14938E+08     2.08842E+09
     3.02838E+01     1.33234E+00     3.14159E+00     5.20180E-21     1.66403E-02    -2.59814E+07     7.93720E+08     2.08261E+09
     3.02838E+01     1.34711E+00     3.14159E+00     5.34019E-21     1.73572E-02     1.24660E+07     7.62431E+08     2.07605E+09
     3.02838E+01     1.36096E+00     3.14159E+00     5.48891E-21     1.81479E-02     3.41033E+07     7.06439E+08     2.06936E+09
     3.02838E+01     1.37396E+00     3.14159E+00     5.65381E-21     1.90496E-02     5.41528E+07     6.23901E+08     2.06256E+09
     3.02838E+01     1.38615E+00     3.14159E+00     5.81688E-21     1.99654E-02     7.13418E+07     5.23418E+08     2.05552E+09
     3.02838E+01     1.39758E+00     3.14159E+00     5.96576E-21     2.08234E-02     8.33017E+07     4.14478E+08     2.04796E+09
     3.02838E+01     1.40831E+00     3.14159E+00     6.10032E-21     2.16051E-02     8.11378E+07     3.09805E+08     2.04006E+09
     3.02838E+01     1.41837E+00     3.14159E+00     6.20997E-21     2.22296E-02     7.24197E+07     2.20463E+08     2.03188E+09
     3.02838E+01     1.42781E+00     3.14159E+00     6.29965E-21     2.27133E-02     5.94069E+07     1.49965E+08     2.02350E+09
     3.02838E+01     1.43667E+00     3.14159E+00     6.37590E-21     2.30894E-02     4.23011E+07     9.95970E+07     2.01543E+09
     3.02838E+01     1.44498E+00     3.14159E+00     6.44053E-21     2.33793E-02     2.75130E+07     6.75710E+07     2.00861E+09
     3.02838E+01     1.45277E+00     3.14159E+00     6.49340E-21     2.36115E-02     2.65906E+07     4.47614E+07     2.00015E+09
     3.02838E+01     1.46008E+00     3.14159E+00     6.53499E-21     2.38164E-02     2.38884E+07     2.49745E+07     1.98843E+09
     3.02838E+01     1.46694E+00     3.14159E+00     6.54233E-21     2.39948E-02     1.86668E+07     9.49204E+06     1.97232E+09
     3.02838E+01     1.47338E+00     3.14159E+00     6.56351E-21     2.41503E-02     1.09276E+07    -3.93954E+05     1.96482E+09
     3.02838E+01     1.47941E+00     3.14159E+00     7.04562E-21     2.42935E-02     1.80990E+06    -4.08315E+06     1.97598E+09
     3.02838E+01     1.48507E+00     3.14159E+00     1.08397E-20     2.44661E-02    -9.70420E+06    -4.45016E+06     2.01168E+09
     3.02838E+01     1.49038E+00     3.14159E+00     1.53731E-20     2.46981E-02    -1.22275E+07    -4.71971E+06     2.02957E+09
     3.02838E+01     1.49537E+00     3.14159E+00     2.35967E-20     2.50138E-02    -7.57189E+06    -4.98148E+06     2.04486E+09
     3.02838E+01     1.50004E+00     3.14159E+00     4.08404E-20     2.54914E-02    -3.70976E+06    -4.96068E+06     2.05771E+09
     3.02838E+01     1.50442E+00     3.14159E+00     9.81422E-20     2.64314E-02    -9.72922E+06    -4.65664E+06     2.06077E+09
     3.02838E+01     1.50854E+00     3.14159E+00     1.72650E-19     2.81006E-02    -1.42472E+07    -4.16191E+06     2.05832E+09
     3.02838E+01     1.51240E+00     3.14159E+00     2.47717E-19     3.04565E-02    -9.05560E+06    -3.64031E+06     2.05151E+09
     3.02838E+01     1.51602E+00     3.14159E+00     3.25700E-19     3.33681E-02    -1.08336E+07    -3.08492E+06     2.04387E+09
     3.02838E+01     1.51941E+00     3.14159E+00     4.24673E-19     3.68583E-02    -1.12929E+07    -2.41696E+06     2.03878E+09
     3.02838E+01     1.52260E+00     3.14159E+00     6.39694E-19     4.13773E-02    -1.51595E+07    -1.56035E+06     2.03131E+09
     3.02838E+01     1.52558E+00     3.14159E+00     7.76230E-19     4.68178E-02    -8.57470E+06    -9.37437E+05     2.02850E+09
     3.02838E+01     1.52839E+00     3.14159E+00     1.23301E-18     5.37846E-02     1.04877E+06    -1.30311E+06     2.01648E+09
     3.02838E+01     1.53102E+00     3.14159E+00     2.18656E-18     6.46209E-02     1.39036E+06    -2.15563E+06     2.00484E+09
     3.02838E+01     1.53348E+00     3.14159E+00     3.44616E-18     8.10808E-02     1.56559E+06    -2.80227E+06     1.99717E+09
     3.02838E+01     1.53580E+00     3.14159E+00     5.21667E-18     1.04365E-01     1.39689E+06    -3.17526E+06     1.99047E+09
     3.02838E+01     1.53797E+00     3.14159E+00     7.75081E-18     1.36407E-01     1.62300E+05    -3.13695E+06     1.98516E+09
     3.02838E+01     1.54000E+00     3.14159E+00     1.25151E-17     1.82729E-01    -3.00144E+06    -2.50455E+06     1.98043E+09
     3.02838E+01     1.54191E+00     3.14159E+00     1.96599E-17     2.50648E-01    -6.95354E+06    -1.21460E+06     1.97742E+09
     3.02838E+01     1.54371E+00     3.14159E+00     2.91771E-17     3.45307E-01    -1.02893E+07     4.92267E+05     1.97544E+09
     3.02838E+01     1.54539E+00     3.14159E+00     4.14029E-17     4.70780E-01    -1.15848E+07     2.18991E+06     1.97385E+09
     3.02838E+01     1.54696E+00     3.14159E+00     5.73316E-17     6.32225E-01    -1.12213E+07     3.50633E+06     1.97237E+09
     3.02838E+01     1.54844E+00     3.14159E+00     7.88880E-17     8.37619E-01    -1.01734E+07     4.35467E+06     1.97085E+09
     3.02838E+01     1.54983E+00     3.14159E+00     1.07798E-16     1.09662E+00    -8.92764E+06     4.81579E+06     1.96928E+09
     3.02838E+01     1.55113E+00     3.14159E+00     1.44858E-16     1.41942E+00    -7.61802E+06     4.97428E+06     1.96765E+09
     3.02838E+01     1.55235E+00     3.14159E+00     1.90828E-16     1.81539E+00    -6.35980E+06     4.90562E+06     1.96594E+09
     3.02838E+01     1.55350E+00     3.14159E+00     2.46744E-16     2.29248E+00    -5.14915E+06     4.69203E+06     1.96415E+09
     3.02838E+01     1.55457E+00     3.14159E+00     3.13793E-16     2.85730E+00    -3.92079E+06     4.38636E+06     1.96234E+09
     3.02838E+01     1.55558E+00     3.14159E+00     3.94173E-16     3.51736E+00    -2.70745E+06     4.01295E+06     1.96058E+09
     3.02838E+01     1.55653E+00     3.14159E+00     4.91004E-16     4.28088E+00    -1.58086E+06     3.59839E+06     1.95897E+09
     3.02838E+01     1.55742E+00     3.14159E+00     6.06687E-16     5.15754E+00    -6.26068E+05     3.17484E+06     1.95760E+09
     3.02838E+01     1.55825E+00     3.14159E+00     7.41818E-16     6.15520E+00     6.00499E+04     2.76740E+06     1.95644E+09
     3.02838E+01     1.55903E+00     3.14159E+00     8.96383E-16     7.27989E+00     3.37392E+05     2.40431E+06     1.95544E+09
     3.02838E+01     1.55976E+00     3.14159E+00     1.07114E-15     8.53481E+00     5.40074E+05     2.09911E+06     1.95456E+09
     3.02838E+01     1.56045E+00     3.14159E+00     1.26685E-15     9.92109E+00     6.88080E+05     1.83956E+06     1.95375E+09
     3.02838E+01     1.56109E+00     3.14159E+00     1.48512E-15     1.14377E+01     7.95974E+05     1.61747E+06     1.95297E+09
     3.02838E+01     1.56170E+00     3.14159E+00     1.72950E-15     1.30846E+01     8.73674E+05     1.43031E+06     1.95218E+09
     3.02838E+01     1.56226E+00     3.14159E+00     2.00425E-15     1.48639E+01     9.20031E+05     1.27340E+06     1.95139E+09
     3.02838E+01     1.56280E+00     3.14159E+00     2.31208E-15     1.67788E+01     9.20357E+05     1.13978E+06     1.95056E+09
     3.02838E+01     1.56330E+00     3.14159E+00     2.65258E-15     1.88300E+01     8.60777E+05     1.02772E+06     1.94972E+09
     3.02838E+01     1.56376E+00     3.14159E+00     3.02334E-15     2.10141E+01     7.56978E+05     9.36603E+05     1.94887E+09
     3.02838E+01     1.56420E+00     3.14159E+00     3.42241E-15     2.33252E+01     6.42748E+05     8.62985E+05     1.94805E+09
     3.02838E+01     1.56461E+00     3.14159E+00     3.85035E-15     2.57564E+01     5.65331E+05     8.03062E+05     1.94726E+09
     3.02838E+01     1.56500E+00     3.14159E+00     4.31294E-15     2.83016E+01     5.29268E+05     7.53475E+05     1.94647E+09
     3.02838E+01     1.56536E+00     3.14159E+00     4.82489E-15     3.09602E+01     4.83388E+05     7.12248E+05     1.94556E+09
     3.02838E+01     1.56570E+00     3.14159E+00     5.41452E-15     3.37413E+01     3.25001E+05     6.79376E+05     1.94439E+09
     3.02838E+01     1.56602E+00     3.14159E+00     6.12486E-15     3.66669E+01    -2.77313E+05     6.63131E+05     1.94287E+09
     3.02838E+01     1.56632E+00     3.14159E+00     7.02919E-15     3.97785E+01    -2.12253E+06     6.87602E+05     1.94118E+09
     3.02838E+01     1.56660E+00     3.14159E+00     8.21717E-15     4.31420E+01    -4.82952E+06     7.76971E+05     1.93976E+09
     3.02838E+01     1.56687E+00     3.14159E+00     9.70951E-15     4.68304E+01    -7.47038E+06     9.31415E+05     1.93896E+09
     3.02838E+01     1.56711E+00     3.14159E+00     1.13986E-14     5.08830E+01    -8.73124E+06     1.11765E+06     1.93884E+09
     3.02838E+01     1.56734E+00     3.14159E+00     1.31237E-14     5.52811E+01    -8.59662E+06     1.29196E+06     1.93896E+09
     3.02838E+01     1.56756E+00     3.14159E+00     1.47953E-14     5.99638E+01    -7.41614E+06     1.42745E+06     1.93915E+09
     3.02838E+01     1.56777E+00     3.14159E+00     1.63489E-14     6.48563E+01    -5.34610E+06     1.50891E+06     1.93929E+09
     3.02838E+01     1.56796E+00     3.14159E+00     1.76944E-14     6.98705E+01    -2.34683E+06     1.53018E+06     1.93916E+09
     3.02838E+01     1.56814E+00     3.14159E+00     1.87719E-14     7.49064E+01     5.89239E+05     1.49227E+06     1.93880E+09
     3.02838E+01     1.56831E+00     3.14159E+00     1.98360E-14     7.99024E+01     2.24721E+06     1.41652E+06     1.93830E+09
     3.02838E+01     1.56846E+00     3.14159E+00     2.10901E-14     8.48595E+01     3.60335E+06     1.32256E+06     1.93798E+09
     3.02838E+01     1.56861E+00     3.14159E+00     2.26254E-14     8.98177E+01     4.37442E+06     1.22080E+06     1.93802E+09
     3.02838E+01     1.56875E+00     3.14159E+00     2.45628E-14     9.48278E+01     4.73661E+06     1.12272E+06     1.93835E+09
     3.02838E+01     1.56888E+00     3.14159E+00     2.67236E-14     9.99261E+01     4.86623E+06     1.03018E+06     1.93887E+09
     3.02838E+01     1.56900E+00     3.14159E+00     2.88467E-14     1.05099E+02     4.85931E+06     9.45270E+05     1.93925E+09
     3.02838E+01     1.56912E+00     3.14159E+00     3.08559E-14     1.10305E+02     4.89432E+06     8.68196E+05     1.93943E+09
     3.02838E+01     1.56923E+00     3.14159E+00     3.27976E-14     1.15503E+02     4.94907E+06     7.97655E+05     1.93944E+09
     3.02838E+01     1.56933E+00     3.14159E+00     3.47098E-14     1.20667E+02     4.99287E+06     7.32803E+05     1.93943E+09
     3.02838E+01     1.56942E+00     3.14159E+00     3.66147E-14     1.25779E+02     5.08228E+06     6.72933E+05     1.93939E+09
     3.02838E+01     1.56951E+00     3.14159E+00     3.85351E-14     1.30824E+02     5.17675E+06     6.17315E+05     1.93934E+09
     3.02838E+01     1.56959E+00     3.14159E+00     4.04758E-14     1.35794E+02     5.25448E+06     5.65574E+05     1.93925E+09
     3.02838E+01     1.56967E+00     3.14159E+00     4.24096E-14     1.40680E+02     5.26863E+06     5.17714E+05     1.93907E+09
     3.02838E+01     1.56975E+00     3.14159E+00     4.42968E-14     1.45470E+02     5.18608E+06     4.74030E+05     1.93877E+09
     3.02838E+01     1.56981E+00     3.14159E+00     4.61515E-14     1.50152E+02     5.16274E+06     4.34262E+05     1.93837E+09
     3.02838E+01     1.56988E+00     3.14159E+00     4.80641E-14     1.54724E+02     5.41103E+06     3.96905E+05     1.93802E+09
     3.02838E+01     1.56994E+00     3.14159E+00     5.01392E-14     1.59191E+02     6.06428E+06     3.59585E+05     1.93782E+09
     3.02838E+01     1.57000E+00     3.14159E+00     5.24401E-14     1.63564E+02     7.11558E+06     3.19942E+05     1.93761E+09
     3.02838E+01     1.57005E+00     3.14159E+00     5.49770E-14     1.67858E+02     8.40595E+06     2.76542E+05     1.93727E+09
     3.02838E+01     1.57010E+00     3.14159E+00     5.77366E-14     1.72082E+02     9.89379E+06     2.28857E+05     1.93665E+09
     3.02838E+01     1.57015E+00     3.14159E+00     6.07327E-14     1.76243E+02     1.14455E+07     1.76973E+05     1.93557E+09
     3.02838E+01     1.57019E+00     3.14159E+00     6.40546E-14     1.80353E+02     1.28060E+07     1.21946E+05     1.93380E+09
     3.02838E+01     1.57023E+00     3.14159E+00     6.79293E-14     1.84428E+02     1.34672E+07     6.63906E+04     1.93113E+09
     3.02838E+01     1.57027E+00     3.14159E+00     7.27620E-14     1.88500E+02     1.20537E+07     1.63574E+04     1.92773E+09
     3.02838E+01     1.57031E+00     3.14159E+00     7.91917E-14     1.92623E+02     7.65228E+06    -1.87019E+04     1.92429E+09
     3.02838E+01     1.57034E+00     3.14159E+00     8.72087E-14     1.96855E+02     1.48875E+06    -3.17155E+04     1.92248E+09
     3.02838E+01     1.57037E+00     3.14159E+00     9.70861E-14     2.01249E+02    -7.51938E+06    -1.86141E+04     1.92271E+09
     3.02838E+01     1.57040E+00     3.14159E+00     1.10347E-13     2.05884E+02    -1.26568E+07     1.51978E+04     1.92426E+09
     3.02838E+01     1.57043E+00     3.14159E+00     1.24956E-13     2.10812E+02    -1.29047E+07     5.47670E+04     1.92577E+09
     3.02838E+01     1.57046E+00     3.14159E+00     1.39290E-13     2.16000E+02    -1.02608E+07     8.88733E+04     1.92684E+09
     3.02838E+01     1.57048E+00     3.14159E+00     1.52144E-13     2.21368E+02    -6.43937E+06     1.12389E+05     1.92736E+09
     3.02838E+01     1.57051E+00     3.14159E+00     1.63486E-13     2.26821E+02    -3.39291E+06     1.25562E+05     1.92743E+09
     3.02838E+01     1.57053E+00     3.14159E+00     1.73952E-13     2.32289E+02    -1.31042E+06     1.31524E+05     1.92727E+09
     3.02838E+01     1.57055E+00     3.14159E+00     1.83918E-13     2.37729E+02     1.74862E+05     1.32909E+05     1.92699E+09
     3.02838E+01     1.57057E+00     3.14159E+00     1.93948E-13     2.43117E+02     9.55443E+05     1.31739E+05     1.92664E+09
     3.02838E+01     1.57058E+00     3.14159E+00     2.04310E-13     2.48442E+02     1.71248E+06     1.29153E+05     1.92624E+09
     3.02838E+01     1.57060E+00     3.14159E+00     2.15238E-13     2.53704E+02     2.43614E+06     1.25398E+05     1.92583E+09
     3.02838E+01     1.57062E+00     3.14159E+00     2.27060E-13     2.58907E+02     3.17324E+06     1.20658E+05     1.92544E+09
     3.02838E+01     1.57063E+00     3.14159E+00     2.40201E-13     2.64062E+02     3.91984E+06     1.15064E+05     1.92513E+09
     3.02838E+01     1.57065E+00     3.14159E+00     2.55142E-13     2.69188E+02     4.68678E+06     1.08734E+05     1.92492E+09
     3.02838E+01     1.57066E+00     3.14159E+00     2.72372E-13     2.74307E+02     5.48669E+06     1.01754E+05     1.92478E+09
     3.02838E+01     1.57067E+00     3.14159E+00     2.92366E-13     2.79448E+02     6.30936E+06     9.41998E+04     1.92470E+09
     3.02838E+01     1.57068E+00     3.14159E+00     3.15631E-13     2.84640E+02     7.12116E+06     8.61658E+04     1.92460E+09
     3.02838E+01     1.57069E+00     3.14159E+00     3.42802E-13     2.89913E+02     7.87071E+06     7.77923E+04     1.92445E+09
     3.02838E+01     1.57070E+00     3.14159E+00     3.74745E-13     2.95303E+02     8.54887E+06     6.92355E+04     1.92420E+09
     3.02838E+01     1.57071E+00     3.14159E+00     4.12618E-13     3.00851E+02     9.13769E+06     6.06397E+04     1.92381E+09
     3.02838E+01     1.57072E+00     3.14159E+00     4.58010E-13     3.06605E+02     9.62094E+06     5.21407E+04     1.92330E+09
     3.02838E+01     1.57073E+00     3.14159E+00     5.13246E-13     3.12626E+02     9.96595E+06     4.38728E+04     1.92265E+09
     3.02838E+01     1.57074E+00     3.14159E+00     5.81319E-13     3.18991E+02     1.01482E+07     3.59721E+04     1.92186E+09
     3.02838E+01     1.57075E+00     3.14159E+00     6.65828E-13     3.25793E+02     1.01723E+07     2.85581E+04     1.92088E+09
     3.02838E+01     1.57075E+00     3.14159E+00     7.72401E-13     3.33151E+02     1.01158E+07     2.16968E+04     1.91970E+09
     3.02838E+01     1.57076E+00     3.14159E+00     9.12291E-13     3.41235E+02     9.94684E+06     1.54196E+04     1.91834E+09
     3.02838E+01     1.57077E+00     3.14159E+00     1.09955E-12     3.50291E+02     9.43495E+06     9.82784E+03     1.91686E+09
     3.02838E+01     1.57077E+00     3.14159E+00     1.35142E-12     3.60640E+02     8.47212E+06     5.10250E+03     1.91523E+09
     3.02838E+01     1.57078E+00     3.14159E+00     1.68072E-12     3.72648E+02     6.88465E+06     1.46573E+03     1.91311E+09
     3.02838E+01     1.57078E+00     3.14159E+00     2.28045E-12     3.87364E+02     4.14434E+06    -9.82988E+02     1.90999E+09
     3.02838E+01     1.57079E+00     3.14159E+00     9.19216E-12     4.27344E+02     4.12407E+05    -1.58783E+03     1.91203E+09
     3.02838E+01     1.57079E+00     3.14159E+00     1.38184E-10     9.09092E+02    -6.28255E+06    -7.93417E+02     1.92137E+09
     3.02838E+01     1.57079E+00     3.14159E+00     6.17116E-10     3.22502E+03     1.95742E+03    -2.33425E+02     1.92587E+09
     3.02838E+01     1.57080E+00     3.14159E+00     9.99998E-10     7.87618E+03     3.06073E+03    -6.95201E+01     1.92606E+09
     3.08612E+01     4.86288E-02     3.14159E+00     1.09227E-21     1.95801E-03    -4.47507E+09     1.13727E+08     1.12852E+06
     3.08612E+01     1.42876E-01     3.14159E+00     1.02173E-21     1.79902E-03    -4.47252E+09     3.45182E+08     4.17242E+07
     3.08612E+01     2.31287E-01     3.14159E+00     9.37581E-22     1.65687E-03    -4.45436E+09     5.79465E+08     9.99739E+07
     3.08612E+01     3.14225E-01     3.14159E+00     8.84953E-22     1.55492E-03    -4.42164E+09     8.05542E+08     1.67579E+08
     3.08612E+01     3.92028E-01     3.14159E+00     8.75655E-22     1.52027E-03    -4.37526E+09     1.01486E+09     2.42720E+08
     3.08612E+01     4.65013E-01     3.14159E+00     8.98273E-22     1.57517E-03    -4.31669E+09     1.18803E+09     3.22398E+08
     3.08612E+01     5.33480E-01     3.14159E+00     9.71544E-22     1.76030E-03    -4.25142E+09     1.30104E+09     4.06526E+08
     3.08612E+01     5.97708E-01     3.14159E+00     1.08953E-21     2.06230E-03    -4.17736E+09     1.36648E+09     4.94817E+08
     3.08612E+01     6.57959E-01     3.14159E+00     1.22982E-21     2.42307E-03    -4.08958E+09     1.41504E+09     5.84691E+08
     3.08612E+01     7.14480E-01     3.14159E+00     1.37853E-21     2.81822E-03    -3.98950E+09     1.45649E+09     6.73962E+08
     3.08612E+01     7.67502E-01     3.14159E+00     1.53910E-21     3.28106E-03    -3.87928E+09     1.48554E+09     7.62925E+08
     3.08612E+01     8.17240E-01     3.14159E+00     1.70138E-21     3.79132E-03    -3.75915E+09     1.50021E+09     8.52972E+08
     3.08612E+01     8.63899E-01     3.14159E+00     1.85279E-21     4.30584E-03    -3.63165E+09     1.50747E+09     9.46087E+08
     3.08612E+01     9.07670E-01     3.14159E+00     1.99249E-21     4.80362E-03    -3.49365E+09     1.51084E+09     1.04419E+09
     3.08612E+01     9.48730E-01     3.14159E+00     2.13070E-21     5.28443E-03    -3.33865E+09     1.50693E+09     1.14901E+09
     3.08612E+01     9.87248E-01     3.14159E+00     2.28169E-21     5.77015E-03    -3.16003E+09     1.49010E+09     1.26164E+09
     3.08612E+01     1.02338E+00     3.14159E+00     2.45006E-21     6.26273E-03    -2.95240E+09     1.45568E+09     1.38168E+09
     3.08612E+01     1.05728E+00     3.14159E+00     2.63477E-21     6.76550E-03    -2.71225E+09     1.39985E+09     1.50667E+09
     3.08612E+01     1.08908E+00     3.14159E+00     2.84041E-21     7.32705E-03    -2.43717E+09     1.31618E+09     1.63246E+09
     3.08612E+01     1.11890E+00     3.14159E+00     3.08910E-21     8.05464E-03    -2.12464E+09     1.19615E+09     1.75410E+09
     3.08612E+01     1.14689E+00     3.14159E+00     3.42395E-21     9.15130E-03    -1.76792E+09     1.03947E+09     1.86638E+09
     3.08612E+01     1.17314E+00     3.14159E+00     3.82752E-21     1.06435E-02    -1.36917E+09     8.74243E+08     1.96271E+09
     3.08612E+01     1.19776E+00     3.14159E+00     4.17064E-21     1.19659E-02    -9.83983E+08     7.44550E+08     2.03502E+09
     3.08612E+01     1.22086E+00     3.14159E+00     4.39073E-21     1.27704E-02    -6.69492E+08     6.58354E+08     2.07858E+09
     3.08612E+01     1.24253E+00     3.14159E+00     4.55459E-21     1.34145E-02    -4.35689E+08     5.90309E+08     2.09857E+09
     3.08612E+01     1.26286E+00     3.14159E+00     4.72062E-21     1.41045E-02    -2.74325E+08     5.25602E+08     2.09854E+09
     3.08612E+01     1.28193E+00     3.14159E+00     4.89490E-21     1.48446E-02    -1.76653E+08     4.68520E+08     2.09644E+09
     3.08612E+01     1.29982E+00     3.14159E+00     5.05332E-21     1.55511E-02    -1.22785E+08     4.30500E+08     2.09094E+09
     3.08612E+01     1.31660E+00     3.14159E+00     5.18945E-21     1.61937E-02    -7.03983E+07     4.06870E+08     2.08233E+09
     3.08612E+01     1.33234E+00     3.14159E+00     5.32364E-21     1.68471E-02    -1.50364E+07     3.82770E+08     2.07284E+09
     3.08612E+01     1.34711E+00     3.14159E+00     5.46102E-21     1.75469E-02     3.47966E+07     3.56808E+08     2.06253E+09
     3.08612E+01     1.36096E+00     3.14159E+00     5.60570E-21     1.83383E-02     7.86595E+07     3.30874E+08     2.05270E+09
     3.08612E+01     1.37396E+00     3.14159E+00     5.75327E-21     1.91988E-02     1.23273E+08     3.01575E+08     2.04411E+09
     3.08612E+01     1.38615E+00     3.14159E+00     5.89700E-21     2.00797E-02     1.71430E+08     2.62051E+08     2.03653E+09
     3.08612E+01     1.39758E+00     3.14159E+00     6.02650E-21     2.09321E-02     2.19898E+08     2.02524E+08     2.02894E+09
     3.08612E+01     1.40831E+00     3.14159E+00     6.14900E-21     2.17666E-02     2.21821E+08     1.30218E+08     2.02102E+09
     3.08612E+01     1.41837E+00     3.14159E+00     6.25498E-21     2.24636E-02     1.94626E+08     6.58568E+07     2.01240E+09
     3.08612E+01     1.42781E+00     3.14159E+00     6.34495E-21     2.29861E-02     1.52912E+08     1.98945E+07     2.00259E+09
     3.08612E+01     1.43667E+00     3.14159E+00     6.42749E-21     2.33620E-02     1.04707E+08    -7.89078E+06     1.97233E+09
     3.08612E+01     1.44498E+00     3.14159E+00     6.64601E-21     2.36458E-02     6.65681E+07    -2.29898E+07     1.96616E+09
     3.08612E+01     1.45277E+00     3.14159E+00     7.72461E-21     2.39035E-02     5.15683E+07    -2.78742E+07     1.97733E+09
     3.08612E+01     1.46008E+00     3.14159E+00     1.12185E-20     2.41977E-02     4.05305E+07    -2.45703E+07     1.99452E+09
     3.08612E+01     1.46694E+00     3.14159E+00     2.11205E-20     2.46480E-02     2.83623E+07    -1.74538E+07     2.01807E+09
     3.08612E+01     1.47338E+00     3.14159E+00     4.69196E-20     2.55076E-02     1.17731E+07    -9.31104E+06     2.03253E+09
     3.08612E+01     1.47941E+00     3.14159E+00     9.77381E-20     2.71598E-02    -1.25203E+06    -3.39264E+06     2.03707E+09
     3.08612E+01     1.48507E+00     3.14159E+00     1.62532E-19     2.98170E-02    -5.49842E+06    -1.81518E+06     2.03772E+09
     3.08612E+01     1.49038E+00     3.14159E+00     2.54371E-19     3.36562E-02    -6.14879E+06    -2.90277E+06     2.03780E+09
     3.08612E+01     1.49537E+00     3.14159E+00     4.11244E-19     3.92250E-02    -5.72500E+06    -3.34425E+06     2.03004E+09
     3.08612E+01     1.50004E+00     3.14159E+00     6.76939E-19     4.74795E-02    -5.96322E+06    -1.88479E+06     2.01827E+09
     3.08612E+01     1.50442E+00     3.14159E+00     1.03641E-18     5.92254E-02    -1.08915E+07     4.02292E+05     2.00975E+09
     3.08612E+01     1.50854E+00     3.14159E+00     1.50703E-18     7.48414E-02    -1.22107E+07     1.80437E+06     2.00395E+09
     3.08612E+01     1.51240E+00     3.14159E+00     2.31693E-18     9.58956E-02    -8.72761E+06     2.39795E+06     1.99398E+09
     3.08612E+01     1.51602E+00     3.14159E+00     3.60333E-18     1.25328E-01    -9.61191E+06     2.86076E+06     1.98186E+09
     3.08612E+01     1.51941E+00     3.14159E+00     5.48559E-18     1.66051E-01    -9.03950E+06     2.97916E+06     1.97225E+09
     3.08612E+01     1.52260E+00     3.14159E+00     8.21769E-18     2.21707E-01    -8.50408E+06     2.23128E+06     1.96531E+09
     3.08612E+01     1.52558E+00     3.14159E+00     1.20245E-17     2.96969E-01    -1.09030E+06     5.30469E+05     1.96217E+09
     3.08612E+01     1.52839E+00     3.14159E+00     1.88412E-17     4.02044E-01     4.05807E+06    -8.35112E+05     1.95621E+09
     3.08612E+01     1.53102E+00     3.14159E+00     3.03737E-17     5.54388E-01     1.47066E+06    -1.02038E+06     1.94950E+09
     3.08612E+01     1.53348E+00     3.14159E+00     4.90284E-17     7.78199E-01    -8.12134E+05    -1.76120E+05     1.94432E+09
     3.08612E+01     1.53580E+00     3.14159E+00     7.72900E-17     1.10310E+00    -1.92676E+06     1.12523E+06     1.94058E+09
     3.08612E+01     1.53797E+00     3.14159E+00     1.17649E-16     1.56205E+00    -3.49569E+06     2.25705E+06     1.93777E+09
     3.08612E+01     1.54000E+00     3.14159E+00     1.72802E-16     2.18981E+00    -5.06466E+06     3.02552E+06     1.93560E+09
     3.08612E+01     1.54191E+00     3.14159E+00     2.46607E-16     3.02303E+00    -6.53322E+06     3.32656E+06     1.93386E+09
     3.08612E+01     1.54371E+00     3.14159E+00     3.44841E-16     4.10415E+00    -7.53758E+06     3.16338E+06     1.93239E+09
     3.08612E+01     1.54539E+00     3.14159E+00     4.74968E-16     5.48494E+00    -7.52808E+06     2.70441E+06     1.93107E+09
     3.08612E+01     1.54696E+00     3.14159E+00     6.46569E-16     7.22367E+00    -6.73399E+06     2.13263E+06     1.92987E+09
     3.08612E+01     1.54844E+00     3.14159E+00     8.68403E-16     9.38699E+00    -5.73208E+06     1.54886E+06     1.92877E+09
     3.08612E+01     1.54983E+00     3.14159E+00     1.14696E-15     1.20405E+01    -4.77212E+06     1.00943E+06     1.92778E+09
     3.08612E+01     1.55113E+00     3.14159E+00     1.49030E-15     1.52409E+01    -3.87104E+06     5.45470E+05     1.92688E+09
     3.08612E+01     1.55235E+00     3.14159E+00     1.91003E-15     1.90537E+01    -3.04810E+06     1.61803E+05     1.92604E+09
     3.08612E+01     1.55350E+00     3.14159E+00     2.41589E-15     2.35396E+01    -2.29922E+06    -1.39792E+05     1.92528E+09